material_id,formula,formation_energy
mp-41414,BaLaMgBiO6,-2.621314345
mp-571425,Ag2Hg7(P4Br3)2,-0.356669641651139
mp-18099,BaSbF5,-3.373108278928571
mp-30472,Ca2GaCu2,-0.292262311999999
mp-1009581,CrSe2,-0.7685572382291661
mp-22247,ErSiRu,-0.8540222716666631
mp-19063,ErCrO3,-3.236585073
mp-554410,Ba2LaRuO6,-2.7789291295
mp-534982,Al13Si5H14Cl(O17F2)2,-2.760704525598591
mp-1009555,CrO2,-1.854942556666666
mp-568177,CaAlSiH,-0.466630160625
mp-18163,Cd4GeSe6,-0.745511873551135
mp-11299,Cd2Hg,0.004843204166666001
mp-631482,BiMoRh,0.524144535000004
mp-557484,BiS4N3Cl4,-0.26533334486979704
mp-554174,Ca2P2H8O11,-2.1889129052950302
mp-17535,B3Ru7,-0.14164597925000302
mp-1007992,CrH,0.36593377250000003
mp-21900,Ce(SiIr)2,-1.057473966999998
mp-756245,BaYI5,-1.758063668571428
mp-567781,Cs3Zr7BCl20,-2.241879189939748
mp-12010,BaSeO4,-2.156183486640623
mp-721347,CaPH4O5F,-2.256773609136905
mp-1345,CaP,-1.2564584531547611
mp-1012551,BaBrCl,-2.7891997933333332
mp-766123,Ce4ThO10,-3.999177892333331
mp-771184,Cr10Fe5O24,-1.966454915897435
mp-1006323,CeLu3,0.024845188749999
mp-757917,Be(GaO2)2,-2.50923507595238
mp-866304,Ba2GdB2ClO6,-3.302007611527778
mp-776448,BaNb3NO7,-2.826374509999999
mp-28861,CsC8,-0.040660426628352
mp-24287,CrH,0.18541373562499902
mp-10881,Ce3AlN,-0.8997610077499981
mp-679985,Ba3In4(CuO4)3,-1.9581004728030291
mp-5950,Cd2Os2O7,-1.462361143636362
mp-616458,Cs2CO3,-2.063233068635058
mp-6583,Ba2Er(CuO2)4,-2.063684899999999
mp-28192,AuSCl5,-0.298684163973214
mp-989644,Cs2NaCaCl6,-2.04173653625
mp-555218,Ba4Br6O,-2.7042772077272703
mp-866227,CaNdRh2,-0.510185246874999
mp-643446,Ca2AlH8S2Cl(O6F)2,-2.172945017678572
mp-867878,AlFe2Si,-0.44477182749999905
mp-558890,BaLi(B3O5)3,-2.944357324839742
mp-13303,ErSnAu,-0.7961439466666651
mp-569114,BaAg2SnSe4,-0.96708619846354
mp-22609,Eu(CdP)2,-0.737578228190474
mp-122,Ba,0.0
mp-686050,CePaO4,-4.114417969166666
mp-1008524,BeSe,-0.530352283671875
mp-720985,CaEr15Si8Se11ClO28,-3.19648922055908
mp-977551,ErLuMg2,-0.039560056666664005
mp-996990,BaAgO2,-1.7506179754166662
mp-17101,CaNb2O6,-3.237535069722227
mp-25205,Cu5(Si2O7)2,-2.016450618695651
mp-1007,DySb,-1.214562465833331
mp-766330,Ba6CaI14,-1.9512437514285712
mp-746670,CoH22C3(N3O4)2,-0.8782385312500001
mp-22031,EuSnPd,-0.8081600883333351
mp-19093,Ba2UNiO6,-3.084455379999998
mp-5353,ErCo3B2,-0.506680013055556
mp-772817,Ba4Y2Cu5O14,-2.2017784328
mp-31158,Ca7Ni4Sn13,-0.488762669375
mp-756040,Gd2HgO4,-2.982678915357146
mp-530800,Er2TiO5,-3.7835834419791663
mp-569066,Cs2PdI6,-1.040615926590038
mp-36007,Ba(NdSe2)2,-2.185455702053567
mp-13452,BePd2,-0.5061120183333321
mp-773953,Ba2LaCl7,-2.83973546875
mp-2654,Al2S3,-1.236182702020833
mp-561710,CsSnS3,-0.8394699596875
mp-770405,BaLaBr5,-2.417533903571428
mp-613327,Fe(BW)2,-0.376666985666665
mp-708961,BeH8SeO8,-1.465797173324652
mp-754055,CsErO2,-2.983598822413793
mp-776320,CuAsO3,-1.258795363499999
mp-771958,Ba3LaCl9,-2.853215276730769
mp-997004,CaAgO2,-1.902973244166665
mp-3479,CaAl9Ni,-0.240652199999999
mp-1018689,ErZnIn,-0.509325057777772
mp-574651,CsSmMnSe3,-1.564242194936243
mp-558302,Bi5BrO7,-1.623925128461539
mp-30169,Ba4Ni3Ge20,-0.28528955537037
mp-557624,CePO4,-3.404101349662704
mp-7624,Er2Si2O7,-3.699185545454551
mp-559766,Cs3LiF4,-2.913594249583333
mp-755573,Cs2O,-1.123274220603449
mp-15588,Ce(BRu)2,-0.5371056376666671
mp-768309,Ce2TiO5,-3.749865975104166
mp-779105,Cu6OF11,-1.6983018805555572
mp-756251,Ba2LaCl7,-2.883574675000001
mp-6297,CaCu(GeO3)2,-2.144718314
mp-17805,Ba2SnSe3F2,-2.426220983066406
mp-644307,Ca(H2N)2,-0.6896962625
mp-24065,CaB2H10O9,-1.860621243446969
mp-561034,Ag9Ge2IO8,-0.852792308999998
mp-579605,Cs2KEuCl6,-2.318157430156035
mp-11437,Er3Rh,-0.548130476874995
mp-29273,Ca2Ge7O16,-2.3710887062
mp-642,BaCu13,-0.007521177499999001
mp-34126,Cu4SnP10,-0.16827058131746
mp-13064,Dy2O3,-3.9594392734166672
mp-865229,Be2NiIr,-0.5821398599999981
mp-626553,Ca(H8O5)2,-1.353888767592593
mp-7876,Ba(MgGe)2,-0.45907881600000106
mp-42022,Cs2RbZrOF5,-3.359053138681035
mp-20603,CeTl3,-0.325969957500007
mp-19387,CdWO4,-1.985844491666664
mp-1008610,AuN,1.5102573925000011
mp-1479,BP,-0.48330429523809504
mp-552934,Ba2CuBrO2,-2.365879127499999
mp-7588,CdGeO3,-1.841437826875
mp-626726,BaH4O3,-1.772861973750001
mp-1600,BaHg11,-0.13566562006945102
mp-87,Be,0.0
mp-27528,Cd4As2I3,-0.46490962291666604
mp-25208,BiO2,-1.042620316666667
mp-2493,CeN,-1.746165499374996
mp-23140,AgHgSI,-0.426432127916667
mp-21677,Ca3(InNi2)4,-0.25544984477777705
mp-569193,Cs4P2Se9,-0.8277255431676581
mp-23201,BaBi3,-0.46083456250000104
mp-768482,Bi2(SO4)3,-1.8502630166176601
mp-1008912,AgC,2.258682377916667
mp-30471,CaCu,-0.10677027750000101
mp-624668,BaSb2,-0.850043534444442
mp-17448,Ba3CaIr2O9,-2.379766347999997
mp-8995,Cs2NbF6,-3.191472776666665
mp-560944,Cs4Ba(PO3)6,-2.780187510395788
mp-22857,CrCl2,-1.196911847222221
mp-554229,CsAs3O8,-1.767822698096265
mp-554539,Ca6Si3H2O13,-3.1913246046875
mp-10335,Ba2CuTeO6,-2.159168554666666
mp-9029,Ca3VN3,-1.267555982321429
mp-15954,As2Rh,-0.5725928316666651
mp-558430,BaB2F8,-3.542616619848482
mp-28975,Bi2(PSe3)3,-0.24818150289222002
mp-698567,Cr(Bi7O12)2,-1.672403235128204
mp-30551,GaFeCo2,-0.22850731437500002
mp-19399,Cr2O3,-2.366587769
mp-31628,CrReO4,-2.147153852916666
mp-12020,ErAl4Ge2Au,-0.415212449999999
mp-29654,B9H11,-0.09809325075000001
mp-720376,H4SeO5,-1.165841302984375
mp-19274,BaPrMn2O6,-2.687422312752873
mp-15236,CrSbSe3,-0.6863518204062491
mp-771914,Ba3La2Cl12,-2.8793371073529412
mp-866605,Ce3SiAgS7,-1.753894574513887
mp-582723,Cs3AlAs2,-0.47687160211925306
mp-5606,AlTlF4,-3.247533628333334
mp-1019583,CaAl2SiO6,-3.395796396
mp-568836,Ba3GeI2,-1.344987884583333
mp-22343,Ce(GeRu)2,-0.6487171459999981
mp-510152,DyNiSn,-0.66791151222222
mp-9844,BaAl2B2O7,-3.252279562777777
mp-850739,Fe3OF5,-2.3700438511111113
mp-768241,Dy2Ge2O7,-3.052895646212119
mp-669476,Ba2ScCl7,-2.784610935000001
mp-940,GdN,-1.815181784374996
mp-556596,AlP3(HO2)6,-2.205651715746752
mp-720868,Ca2CdH24(ClO2)6,-1.474097778
mp-649453,Ca3BCNCl2,-1.551805647395832
mp-1016881,CdSnO3,-1.4914406139999992
mp-570961,CdBiSe2I,-0.717463798937498
mp-21431,HoIn3,-0.38207923124999704
mp-754079,GdAsO4,-2.759447232916667
mp-705424,Fe17O18,-1.474056338571428
mp-1007918,DyAu,-0.8778207408333321
mp-773874,CuSb3(PO4)6,-2.235613433466387
mp-672205,Ce(C2N3)3,0.976062449999998
mp-30941,Cd2(TeO3)3,-1.502494158392857
mp-866222,AcSi3,-0.32146851812500105
mp-10670,Ca3(AlGe)2,-0.603305947142858
mp-17185,Ca4Si3Pd4,-0.839723534090906
mp-21394,EuO,-3.123422545000004
mp-761704,Bi4O5F2,-1.905405160000001
mp-554493,BiAsPbO5,-1.7221394259375
mp-558647,Cu9Se4(Cl3O7)2,-1.028227847253787
mp-560049,CuSeO3,-1.093140096468751
mp-645299,Cs2Mo2O11,-1.210042096620689
mp-607467,CaMoO3,-2.619377736499999
mp-1013708,Ba3SbN,0.47130420500000003
mp-753699,Bi4O5F2,-1.8725314240909101
mp-569927,ErZn5,-0.314687268055555
mp-769802,Ba2Zr7O16,-3.7170369547999993
mp-755252,DyHO2,-2.909832430729165
mp-705555,Fe10O11,-1.4909577690476181
mp-9746,Ba3NaIrO6,-2.373929211943573
mp-9259,Ba2Mg(BO3)2,-3.127045616666666
mp-1019572,CaAl2SiO6,-3.41135347025
mp-10849,AsPdSe,-0.38689818552083205
mp-19267,BaMnO3,-2.484337766586208
mp-867966,Eu2SiO5,-3.272983015000003
mp-984534,Dy2OsPd,-0.603532545749999
mp-643643,BaH2CSNClO,-1.3400905325
mp-637918,Cr3GeN,-0.280031403750001
mp-30374,DyInAu2,-0.7004257995833301
mp-862687,CuH6(NCl)2,-0.650538266136363
mp-772188,DyErO3,-3.946876731666664
mp-778217,Fe2Co3O10,-1.086145637999999
mp-1006372,AgSO4,-1.3589313423611111
mp-19855,Cr7C3,-0.0979919295
mp-6289,Ba2Ti(GeO4)2,-2.894512731410256
mp-1009086,BeSnP2,-0.21762600357142703
mp-559871,AlF3,-3.855135869166666
mp-557757,AlPO4,-3.104928618551586
mp-3187,BaCeO3,-3.589836753000001
mp-579556,CsHoZnTe3,-1.2997268416091932
mp-24390,CaPHO4,-2.799886724056121
mp-8960,Ba3NaNbO6,-2.976785175579937
mp-15733,CaTaAlO5,-3.484082552166667
mp-685935,CdGeO3,-1.7615613890000001
mp-680322,Bi17P5Pb5O43,-1.9481427038316332
mp-961668,AlVPt,-0.13764821000000002
mp-14581,CsCu2F6,-2.124188423333333
mp-4406,CaSO4,-2.668935733749998
mp-625632,H9BrO4,-1.1665077558035701
mp-569707,BiSeBr,-0.8835410691145841
mp-6325,Ba3MgTa2O9,-3.413043947644446
mp-975924,Ge3Ir2Se3,-0.6481776277539061
mp-989635,CaMoN3,-0.792266584000009
mp-10677,CaPAu,-1.006515299325395
mp-754555,HoTlO2,-2.722815777083333
mp-954,BaB6,-0.409972365
mp-1444,CaCd2,-0.305773326666664
mp-557644,Ag2P2PbO7,-1.98453012438492
mp-9769,BaAs2Pt,-0.8445243012499991
mp-31235,BaNaBi,-0.755547202681991
mp-38972,Ba3Re2O9,-2.686587441428575
mp-611,Ag3Sn,0.013177481250000001
mp-12431,BaBeF4,-3.929139663333339
mp-864671,HfAlRh2,-1.097746739999998
mp-553874,Ba2LaAg5S6,-1.270610511309522
mp-18071,Ce3SiAgSe7,-1.557959609422742
mp-34501,Fe2CoO4,-1.487742959999999
mp-561052,Ba4Na2CaTi3Si4(SO13)2,-3.123070114470443
mp-772052,CdSeO4,-1.289460308723958
mp-22430,BAsPbO5,-2.071957979375
mp-696379,BH3OF4,-2.285948338657407
mp-642834,BaH5ClO3,-1.742991589624999
mp-673017,CuPO4,-1.755735721190475
mp-5497,Er(CoGe)2,-0.5943035559999981
mp-997054,CuBiO2,-1.2602380275000011
mp-772187,AlGaO3,-2.81903060325
mp-42392,CoH22N7(ClO2)4,-0.49071110291666703
mp-33546,Fe2CuO4,-1.368033957142857
mp-421,DyNi2,-0.44547297222221904
mp-19518,BaCr(Si2O5)2,-3.16852315671875
mp-779089,CoOF,-1.561671541666666
mp-27145,Ca5Bi3,-1.0158090446875
mp-998433,CsSrBr3,-2.345195739931037
mp-16745,ErAgPb,-0.34986318055555005
mp-13140,BaLiGe2,-0.531027867083333
mp-541111,AlGaCl4,-1.398451875416666
mp-773011,Dy2Ge2O7,-3.029772501666666
mp-772550,CrO3,-1.497262841875001
mp-8516,CdSO3,-1.6321763404999992
mp-2191,ErSb,-1.311072816666666
mp-9757,BaSm2PtO5,-3.008846080000001
mp-3603,Ce3(BN2)2,-1.551559743148149
mp-6959,Ga2NiS4,-0.824637273571427
mp-32580,Ga2Te3,-0.262890891
mp-561586,CsLaS2,-2.159362920156248
mp-866033,AlZnRh2,-0.8575285962499991
mp-862806,Er4Ga16Co3,-0.49499612217391403
mp-752434,Gd3YO6,-3.893394310500001
mp-998323,CsInBr3,-1.5272778502643671
mp-777744,Ba2YF7,-4.283659783000002
mp-567556,CdSb2Se3Br2,-0.795428425878906
mp-557604,AlPO4,-3.112951825218251
mp-23224,BiTe,-0.22833432583333502
mp-571056,CsSn,-0.40744401109375106
mp-707129,Ca3B6(H4O5)4,-2.132432756555556
mp-19860,CeTiGe,-0.574949012777776
mp-867749,CaBiO3,-2.243382312
mp-985558,Ce2US5,-2.233854403945312
mp-770936,Ba2Sc2O5,-3.490404048055558
mp-18420,Er3CrS6,-2.019613784749998
mp-40502,CsTiCoOF5,-3.114244638109834
mp-618788,Ba(Cu5P2)2,-0.214332698238094
mp-570175,Ce5Si3,-0.637579376249998
mp-698728,Ba2CaY(Co4O7)2,-1.565146926538461
mp-4564,Ba4Nb14O23,-2.811276072805006
mp-556117,Ga3Pb5F19,-2.814266428981481
mp-770816,Dy2TiO5,-3.884924218333333
mp-631310,CoReGe2,0.5981970912499961
mp-775191,Fe3Cu(PO4)4,-2.179921627440475
mp-15739,BaZn2(AsO4)2,-2.133396847884615
mp-998552,BaHfO3,-3.786714650999999
mp-669466,AgNO3,-0.6756339573333331
mp-773040,As5Pb3S10,-0.457839100972221
mp-9993,Al2CdS4,-1.12634982232144
mp-560521,Be(PO3)2,-2.770024390198412
mp-23012,Bi2Pd3S2,-0.388550415803572
mp-979962,AcYbCd2,-0.287293888124999
mp-571623,Al2BiSe4,-0.8726628287500011
mp-616492,DyGe2Pt,-0.948156722499998
mp-707838,Ca3Be2P4(HO2)10,-2.427407532591576
mp-4934,Al2SiO5,-3.372199139687501
mp-18024,Hf9BMo4,-0.18781576767857303
mp-9338,Ba2MgSi2O7,-3.363647231666667
mp-10444,Ca2Al2O5,-3.411476938333332
mp-8294,Cs2Li2TiO4,-2.526923392701148
mp-562345,Cs2Si2O5,-2.8887057679789283
mp-540794,Ba3SrNb2O9,-3.247779618
mp-21770,Cu4As2O9,-1.248004086000001
mp-937760,C,0.006056227500000001
mp-559400,BeF2,-3.548647526666666
mp-985828,AgBiS2,-0.19948709932291903
mp-12087,Cu2S,-0.11781005802083101
mp-760386,CsClO3,-1.151050084931034
mp-33985,Ba(InTe2)2,-1.004289992142856
mp-568920,CaAu5,-0.452440076666666
mp-554238,CuBiSCl2,-0.6645855136875011
mp-11674,Al2Se3,-1.0088235364375011
mp-758849,CuSn(PO4)2,-2.223373917023809
mp-548479,Cs2U2O7,-3.274979256755456
mp-862713,BeGeRu2,-0.279699512499998
mp-715558,Fe3O4,-1.56669374642857
mp-766248,Al11InO17,-3.293090156436781
mp-31251,Ga(SbCl)4,-0.671918128703708
mp-8594,Ag7PSe6,-0.165708605167939
mp-23791,B(HO)3,-1.854174557559518
mp-570071,Dy2Zn17,-0.271812180263156
mp-989521,Cs2SCl6F,-0.695064462612845
mp-27544,Cs3Bi2Br9,-1.6039693781403952
mp-4338,Cr2CdS4,-0.983280842142856
mp-5835,Ho(CoSi)2,-0.7916460150000001
mp-11843,DyAl,-0.444183152499999
mp-989567,Cs2RbTlF6,-2.702997824014368
mp-640089,CeCd11,-0.179083294999998
mp-17880,Al13Ru4,-0.5809319082352941
mp-754604,BaBePO4F,-3.324733488080356
mp-16487,Ce(MnAl2)4,-0.33031742628646105
mp-677248,Ca2AlH10IO8,-1.883164274431817
mp-696156,Ca3Si2(H3O5)2,-2.5216153713095233
mp-631450,BeGe2Te,0.513970239583333
mp-560595,Ca2AsClO4,-2.75325286625
mp-2302,AsRh2,-0.5298349875
mp-650532,Cs2K2Cd3O5,-1.384625765317528
mp-10336,BaYCuTe3,-1.4514473525
mp-753709,BaCaI4,-1.9035235224999991
mp-17125,CsNa3Li12(GeO4)4,-2.223422387883142
mp-631556,BaGe2B,0.738176705208333
mp-574070,Cs4Pb9,-0.18767810431697401
mp-683942,BaU(SeO4)2,-1.865846976432291
mp-555742,Ba2B5ClO9,-3.056584099460782
mp-6468,BaNd2ZnO5,-3.139614177222223
mp-23632,Ca2BN2Cl,-1.7512279648611102
mp-28348,Ba2As2Se5,-1.294868916857641
mp-720719,Ca2Y2Si4H2CO16,-3.131101448240739
mp-769317,Ca4Ta2O9,-3.485215908977782
mp-568932,Cd2Os(CN)6,0.064329302333336
mp-697260,CdH8C2S2(BrN2)2,-0.526542558289473
mp-13211,Ag2Te2O7,-1.100079193787878
mp-81,Au,0.0
mp-758088,Ba6Bi6O17,-2.199679351896553
mp-9697,Cs6GaSb3,-0.578140799999999
mp-574176,Ba(InAu)2,-0.546454538166676
mp-29575,Cs3Fe2Cl9,-1.734115075283251
mp-690556,CaLaMnRuO6,-2.369455040793103
mp-752397,Ba2SrI6,-1.9965919983333331
mp-7979,K2PdF6,-2.381861047166666
mp-706875,Fe21O23,-1.4804801530681821
mp-607450,In3Ru,-0.23597294750000203
mp-1415,CaSe,-2.315957819531251
mp-866869,Ca3Sn2S7,-1.456174255624999
mp-675601,Al3NO3,-2.854581422142857
mp-542777,CePt5,-0.7909169800000011
mp-27910,Bi2Te2S,-0.33192813256250103
mp-5725,CuAg3S2,-0.10558837246527701
mp-556888,KSbF6,-2.89642955278125
mp-1019782,K2LiB(PO4)2,-2.739611065448979
mp-556250,KSrB5O9,-2.957514786598959
mp-669575,Hf2InNi2,-0.5018292213333311
mp-556021,BaTeO3,-2.347717884666667
mp-778220,Li4V3Cr2Fe3O16,-2.194666305119047
mp-2258,Cu3Au,-0.036564252500000005
mp-779457,Ge2N2O,-0.7124352785000001
mp-5280,In2Ge2O7,-2.060192433484849
mp-19927,CeZnGe,-0.589730007499999
mp-27589,Cu5(PO5)2,-1.645172859369747
mp-3988,BaCu3O4,-1.45664853125
mp-770212,Li6Ti2S6O,-1.692818279277777
mp-777464,Li4Ti5Cr3O16,-2.9503441125
mp-30385,Ho2Au,-0.7452779566666641
mp-772213,La4CuO8,-3.109178970769231
mp-11771,CoCu2SnSe4,-0.466372290546875
mp-569007,Ga,0.08874567863636201
mp-672287,Li13Si4,-0.23409448784313702
mp-995234,HCO,-0.875737294940476
mp-5712,Cd2GeAs4,-0.064777192857143
mp-16750,HoCuPb,-0.375390489999998
mp-23159,SrBi3,-0.45632337125000705
mp-998928,TlCdS2,-0.47642469458333403
mp-15722,Fe2B4Mo,-0.39006295095237903
mp-754541,TmTlO2,-2.760831665833336
mp-763211,V3O5F,-2.567196321111111
mp-734875,H2Pb4C(Cl3O2)2,-1.5744018480882351
mp-27752,Na6Ge2S7,-1.148486333051725
mp-10712,ScRh3C,-0.49434824799999805
mp-18049,Ge5P6O25,-2.416966496051587
mp-779365,V2OF5,-3.045821764166667
mp-631255,InSiIr,0.641077142708335
mp-27837,NaHF2,-2.467991820657327
mp-15793,LiTbSe2,-1.9265539136718741
mp-566257,Li4Mo3O8,-2.077484462222223
mp-978910,TbYRh2,-0.832463396666664
mp-771082,Li4CrFe3O8,-2.057149791145833
mp-32352,LiNi(PO3)4,-2.355642205105819
mp-776753,Li4CrFe2Ni3(PO4)6,-2.326144626779762
mp-22636,TaNiGe,-0.44462663244444406
mp-3678,Tb(SiRu)2,-0.8874222853333291
mp-560965,K4Mn(AsS4)2,-0.968316028962068
mp-649982,Sb8(Pb3S7)3,-0.6585281323026291
mp-30754,LaTlPd,-0.684025008333339
mp-673117,Sn2P3O10,-2.277971357261905
mp-767752,Li3V5O10,-2.45208269388889
mp-23560,Ge3(BiO3)4,-1.93059506552631
mp-15248,K3Nb3(BO6)2,-2.873965536004166
mp-557104,LiAlB2O5,-2.988829571851851
mp-1019895,La3BN2O3,-2.81222376212963
mp-675832,SrCeN2,-1.384533743124997
mp-16209,K3La(PS4)2,-1.37663956025255
mp-30670,Th3Ga2,-0.46397430999999106
mp-769563,Li4V3Cr3(TeO8)2,-2.226278001666667
mp-772309,Li3Ti(CuO2)4,-1.771613095208333
mp-14862,SrCu(Si2O5)2,-3.01476975453125
mp-20418,SiRh2,-0.7421774966666681
mp-770514,Li5MnO4,-2.016020353334769
mp-621994,NdOsO4,-2.47005434583334
mp-29128,K2Te4O9,-1.679416738577777
mp-764991,Li3V3P8O29,-2.518009201212624
mp-11361,MgCuSn,-0.167420896666666
mp-676518,In3SbTe2,-0.307758337222221
mp-11691,Nd2HgO4,-2.933779668928569
mp-767610,Mn2O3F,-2.029457671810345
mp-27914,Na3BiO3,-1.7116207995197041
mp-973261,Mg2SnO4,-2.635208654285713
mp-504207,LiSb(PO3)4,-2.5049248712169323
mp-643248,Na2AlH4ClO4,-1.956132986479885
mp-740707,H8AuC2S2BrN4,-0.424668519722221
mp-10194,LuSbPt,-1.3663540288888871
mp-759651,ScH6Br3N2,-1.079631199166667
mp-979013,SmGe3,-0.395154118749999
mp-733655,KH3(SO4)2,-1.756798743285713
mp-15254,Li3AlF6,-3.487262210833333
mp-761745,SrCd2H16(Br3O4)2,-1.336343896212121
mp-862754,PrBS3,-1.550804115666665
mp-557125,K3ReClF6,-2.66220172675
mp-568644,K9InSe7,-1.232797414754288
mp-776456,Ti2O3,-3.255844817000002
mp-19754,TmCoC,-0.34061066833333303
mp-29286,TlSbF4,-2.499807136388887
mp-33738,TiNiO6,-1.048997341666666
mp-4495,KLiTe,-1.209200204083333
mp-779515,Na4Bi2C4SO16,-1.9289873969636022
mp-11740,KNdTe2,-1.685042555312502
mp-4325,Zr(SO4)2,-2.353294295681817
mp-767435,P3(WO6)2,-2.503737767142856
mp-23047,Ho6MnBi2,-0.5537700360536381
mp-752701,LiCuF3,-2.34662675583333
mp-974846,Rb3Os,1.412115256875
mp-975299,RbInO3,-1.251412653833333
mp-695048,GdTi2CdO6F,-3.171233815606061
mp-2509,ThRh3,-0.733108499999999
mp-11733,Lu3InN,-1.218801315749993
mp-974307,NdCuTeO,-2.074643937291666
mp-768865,Lu2GeO5,-3.401718476041666
mp-777694,Li4Ti3V5O16,-2.758962322261904
mp-36765,Ti(CoO2)2,-2.229277574047619
mp-771698,LaAlO3,-3.6653477362499993
mp-769396,Y2Ge2O7,-3.054602234090915
mp-505484,PrGePt,-1.055098570555555
mp-758251,Li5AgF8,-2.5906000959523823
mp-999188,NbNi3,-0.13035502499999901
mp-1019726,EuMg3SiN4,-1.1302920340277791
mp-865917,Lu2ZnTc,-0.26474941098958304
mp-851120,KNa2Li3Zr2(Si2O5)6,-3.098906276400171
mp-570255,Pr(AlGa)2,-0.512696226333332
mp-721075,Ga2P3H11O13,-1.7165892264716751
mp-11023,ScAuO2,-2.563697553749998
mp-998194,RbInBr3,-1.482911641833332
mp-647343,PBr7,-0.720567094330356
mp-4421,LaTaO4,-3.71283354497224
mp-768992,Li6Bi2O7,-1.907671144666665
mp-861915,LiDy2Ir,-0.57367242166666
mp-9042,Np(SiPd)2,-0.8079278577500021
mp-30077,K2GaSb2,-0.488991842149999
mp-530165,Li13Ti22O48,-3.238429192248996
mp-30834,SrSn3Pd,-0.5791159990000041
mp-696512,NaH4IO2,-1.308326800172414
mp-5671,Sr(CoP)2,-0.8369478311904751
mp-557517,Tb3CuGeS7,-1.732246598541665
mp-7324,KBePO4,-2.888861876698979
mp-772999,Na2SiBiBO7,-2.272033874743773
mp-865048,TiZnIr2,-0.7074610533333321
mp-650015,P6N7Cl9,-0.8851360274025971
mp-766084,Li7Nb12O24,-2.716443507984496
mp-20440,MnNi2Sn,-0.171088353232758
mp-8098,InGaO3,-2.129527090833333
mp-552729,KIO3,-1.359852848949999
mp-774479,LiCa2Ta3O10,-3.311104155333334
mp-984635,LiErSn,-0.634979141527779
mp-1018131,LuAg2,-0.351867848888886
mp-1020,TaRh3,-0.638781819333335
mp-7405,SmAlO3,-3.697794770499969
mp-775849,Zr2N2O,-2.24159692125
mp-568195,U6Mn,0.026661801724143
mp-569726,HoAlB14,-0.19824139645069702
mp-567458,Ho(PRu)2,-1.031057830857142
mp-36395,La2CdS4,-1.938104688571428
mp-568928,Rb2FeI4,-1.143363469285714
mp-705358,Mo2P3O13,-2.343272488551587
mp-28712,Si2Hg6O7,-1.579683229999991
mp-29591,Sb3ClO4,-1.7093936262500011
mp-738657,K3GdH6(C2O5)3,-1.830975397717742
mp-770417,Li4Mn2VNi3(PO4)6,-2.411185361176314
mp-8537,S(OF)2,-1.978594187999999
mp-18687,NbF5,-3.158893295833332
mp-779078,Na2CoO3,-1.465095390459769
mp-567278,Sr(Si3N4)2,-1.330957356000001
mp-21609,SrCuN,-0.555102644861111
mp-4709,PrNbO4,-3.503020980277776
mp-774310,Li10Cr2Fe3Co3O16,-1.879407420980392
mp-31027,Sc3(ReSi2)2,-0.6905308802777731
mp-862492,LiErTl2,-0.300405797500002
mp-653120,Mn(GaTe2)2,-0.45369395778324606
mp-28797,YHSe,-1.659960229270832
mp-974416,Re3W,0.127502223750006
mp-1510,Nd2Fe17,0.323009587105263
mp-850395,LiMn3(BO3)3,-2.3897290512266522
mp-675821,Y3TaO7,-3.70648601112121
mp-30419,USnAu2,-0.22900603124999502
mp-754637,NaCuP2O7,-2.215141074151364
mp-31430,Na2In,-0.175832273333333
mp-974738,KSr3,0.09926039425000001
mp-985584,Na3PS4,-1.112719402347597