material_id,formula,formation_energy
mp-625957,Ta2H4O7,-2.350788297282051
mp-764702,LiFe2(BO3)2,-2.266538991515151
mp-680493,K3Co(CN)6,-0.28214939675
mp-754964,HfZrO4,-3.868326841666666
mp-22467,Sn(PbO2)2,-1.779286491428569
mp-4374,UAsS,-1.4823808451041691
mp-676512,Na3AlF6,-3.390414403
mp-17208,K2Li14Zr3O14,-2.569991883671717
mp-545525,NbCuO3F,-2.39608348
mp-5514,TbCuSi,-0.7364028166666661
mp-22955,LiIO3,-1.385046748666667
mp-29274,P2PdO6,-2.167519598253974
mp-622497,V3O5,-2.518041229687499
mp-14921,Zn4B6SeO12,-2.439133157710597
mp-996162,Nb2AlC,-0.5044639887500001
mp-753800,NbOF3,-3.2814517095
mp-631392,SrHfRe2,0.8307348362499981
mp-3582,Mg(BC)2,-0.22850933124999903
mp-6730,Sr3ZnPtO6,-2.387038907272727
mp-771643,Sr2CaI6,-1.845626800555555
mp-553993,SiO2,-3.22619880375
mp-1888,RbGe,-0.19171812109374903
mp-3466,PrAlO3,-3.655848326333328
mp-680551,NdNi4B,-0.41482454888888803
mp-2223,GaPt2,-0.5330462758333361
mp-567320,La5C2I9,-1.538960509062498
mp-570213,LiMgBi,-0.396783942777777
mp-13772,Li3Pr2(BO3)3,-3.08077181740196
mp-631387,SnRuW,0.6243340659523731
mp-30782,Sr6Mg23,-0.07009129706896501
mp-642735,Rb2H4Pt,-0.48832260857143006
mp-31324,Li2In,-0.36941911944444306
mp-979283,V3Cu,0.158531359999999
mp-542514,Ho2Te4O11,-2.3061196877450962
mp-28843,Tl2SnTe5,-0.45936764750000103
mp-975031,RbBeH3,-0.191623514749999
mp-799,V3S4,-1.300097730714278
mp-23276,InCl,-0.910675994374999
mp-556216,HIO3,-0.8954015220000001
mp-1016831,HgIrO3,-0.6086466195000011
mp-556989,ZnS,-0.9617217564062501
mp-555865,Na2Sr7Al6F34,-3.9737082610767063
mp-865152,MgAlPd2,-0.826217871249998
mp-562480,TlIn5S7,-0.7929937014743581
mp-776687,Li5FeF8,-2.99276931547619
mp-779274,Mn4O7F,-1.8904691180603441
mp-864878,ZrAlAu2,-0.594448286249999
mp-771899,Ni4P2O9,-1.955419238285714
mp-770653,Sr3W2O9,-2.732290424464286
mp-765807,Li4V5O9F,-2.512674338596492
mp-673798,K3ClO,-1.6319486943500001
mp-561392,TcSO6F,-1.803509564722221
mp-18854,Sr2CrO4,-2.754483521428571
mp-715,ZrIr2,-0.811838866666666
mp-541361,K2RuNCl5O,-1.498598863199999
mp-33335,MgAl2O4,-3.342973633571429
mp-770840,LiVGaO4,-2.382188713690477
mp-17926,Zr3Ni3Sb4,-0.7275767780000011
mp-761711,Li4V3SiO10,-2.563966185740742
mp-31114,Ho3GaO6,-3.603410627749996
mp-631455,HfSi2Br,0.45931817625000004
mp-774354,LiMn2F5,-2.9773307227119252
mp-771391,Mn5Sb3O16,-1.804586450402299
mp-543029,La2TeI2,-1.754802779333334
mp-12453,HoCuS2,-1.59167361328125
mp-696136,Li10Sn(PO6)2,-2.405174770104762
mp-10930,TbSF,-3.3604610242708333
mp-28597,Na5InTe4,-0.9619168955229871
mp-13520,Na2ZnGe,-0.2016916575
mp-772159,La6Cu6O17,-2.459550606034483
mp-759838,NaSn2(PO4)3,-2.498935143628215
mp-779692,Ti7O8,-2.924000725555555
mp-10779,RbNdSe2,-1.961647512421874
mp-2245,Si3N4,-1.317403839285715
mp-770551,Li2MnAlO4,-2.571571564324713
mp-15750,TaAgP4O13,-2.591102061977443
mp-849514,LiMn3(BO3)3,-2.392022057789153
mp-755089,ZrO2,-3.785647493333332
mp-705896,MgVFeMo3O14,-2.1089558975
mp-4016,TlGaS2,-0.8847134923958341
mp-555155,KNa2Y(Si2O5)3,-3.187745788600344
mp-18911,LiVP2O7,-2.685813710238095
mp-758291,Li3Sn3(PO4)4,-2.423640223214284
mp-3527,Na3AgO2,-1.258432925967428
mp-770256,Li4V2(SiO4)3,-2.7476342323015883
mp-695890,Mg10Si3(H2O9)2,-2.814538871857144
mp-773864,TiSnO4,-2.738304679722222
mp-774951,Li2MnCr3O8,-2.224417566221265
mp-12804,SmAlSi,-0.726917778333335
mp-571033,NiSe,-0.23667956953124902
mp-763508,V(CO3)2,-1.9442896972222221
mp-801,Mo3Os,0.0017573587499980002
mp-961720,ZrAsRh,-0.354964272499999
mp-570232,TbCl3,-2.522903324999999
mp-770861,Li8Cr2O9,-2.085889620219298
mp-4710,Hg3(BO3)2,-1.663841944166668
mp-695119,Na3Zr2Si2PO12,-3.141901029189038
mp-756473,WSCl4,-1.289699437083333
mp-825,RuO2,-1.457661898333333
mp-770358,Li3V3(BO5)2,-2.57491017324074
mp-30709,La2Zn17,-0.29150722500000004
mp-14209,LiYGe,-0.71909869611111
mp-29078,Hg4As2Br3,-0.45071571055555804
mp-766437,MgTi5O10,-3.405739620104166
mp-28698,Na4IrO4,-1.566374858390804
mp-20214,UGa3,-0.38719763624999703
mp-7567,UGeO4,-2.872734061666664
mp-972364,Yb,0.0007620549999950001
mp-755915,Li4Nb3TeO12,-2.588588881499999
mp-697769,Mo(PO3)4,-2.445280203739496
mp-3951,Ti2CuS4,-1.437793791666667
mp-1786,Ti3Au,-0.386483803749999
mp-779083,Li2V3SnO8,-2.340042725833333
mp-1016846,TiCdO3,-2.4732249276666662
mp-768216,Li2BiPCO7,-2.281816184692459
mp-759242,InH10N2Cl5O,-1.007966313903508
mp-3271,Ti3AlC,-0.591599556999995
mp-770322,Rb2PrO3,-2.2323441077777773
mp-761486,LiFePO4,-2.456173770425169
mp-3336,LaGaO3,-3.0924083945
mp-16721,TmAl,-0.47079037250000105
mp-30534,UCuP2,-0.7918317589880951
mp-546684,PdSeO3,-1.02822530146875
mp-756007,Li3Cu3(PO4)2,-2.063703354955357
mp-36029,ErAgS2,-1.547133880416665
mp-1008881,MgNiH,-0.238172515416666
mp-772640,Ga2WO6,-2.158982824166666
mp-775199,LiMnVO4,-2.360086020180625
mp-973612,Hf9CoMo4,-0.159731492857141
mp-690548,NaMgFe(SO4)3,-2.114691025493295
mp-16652,Tb2MgPd2,-0.7660357466666651
mp-972272,TmAlAu2,-0.8127059820981941
mp-780432,La3Al5O12,-3.614850969874999
mp-643004,SrMg2FeH8,-0.48547279083333306
mp-977380,LiMg2Pd,-0.45912025833333203
mp-770401,SbPO4,-2.297922147857142
mp-639910,Y(Sn3Ru2)2,-0.32017464545454405
mp-555721,Sr4GaN3O,-1.222117299999999
mp-1074,RbSi,-0.005613324374999001
mp-849479,Mn6O7F5,-2.201663921810345
mp-763425,LiMn2F7,-2.8502369304195403
mp-11017,KCd(NO2)3,-1.019206403840908
mp-12455,TmCuS2,-1.591410292656252
mp-542888,La3AgSnS7,-1.7935577528472222
mp-531572,Sr25Cl52,-2.653600156038964
mp-763349,Li2MnF4,-3.006725238156814
mp-10386,Sm3CrSe6,-1.829731205906252
mp-35612,PuOF,-3.498975999583327
mp-762142,Li2Fe3CoO8,-1.645312888333333
mp-542388,Lu7Te,-0.35529353354166704
mp-8946,TlBS2,-0.7129788381249981
mp-568478,Nb6Tl2VCl18,-1.6096248143209881
mp-321,RhPb2,-0.10320523499999901
mp-30710,Pr2Zn17,-0.266934809649136
mp-776437,LaTa2NO5,-3.196054126629631
mp-973878,Lu3Ga5Ni,-0.655622115277773
mp-570266,Sm26Ga6Co11,-0.23666165406976802
mp-973599,Hg3As,0.27673667624999604
mp-558533,Nd3U(ClO2)3,-3.500149829423076
mp-561102,InBiO3,-1.7779738328333332
mp-768280,Sm2B4O9,-3.275193956444447
mp-505306,Eu2Sn2O7,-2.6704880995454543
mp-560773,K2NaS2ClO6,-2.080939382573275
mp-11392,TmGa2Pd,-0.855626688749999
mp-35596,Fe2NiO4,-1.591041269285713
mp-1019362,ThBiTe,-1.043686603888884
mp-12697,Sc(MnSn)6,-0.21872186014588701
mp-772441,Y2W2O9,-2.874989288653846
mp-9776,YbAgGe,-0.6936264977777751
mp-559962,SiO2,-3.231052067222221
mp-28156,NaGdCl4,-2.353419613333334
mp-722937,Zr3Zn3N,-0.8587921201785711
mp-978926,SmGeO3,-2.458910103
mp-780529,Li3Mn4(BO3)4,-2.463984302103948
mp-775967,Mn3NbCr2(PO4)6,-2.535107736712506
mp-30876,Zr3Sn,-0.39864538000000105
mp-29562,Tl2MoCl6,-1.374365319629633
mp-20998,LiCaPb,-0.474587644444442
mp-23421,LiYb2Cl5,-1.928012280520834
mp-567424,K8NbAs5Pb,-0.44796718553333303
mp-753123,Li2CuF4,-2.57956592190476
mp-12960,Er5Sb3,-1.007606152083333
mp-771025,Na2SiBSbO7,-2.4766565072437743
mp-15590,Sr2Nb2O7,-3.299259844545453
mp-9298,Sr(AuO2)2,-1.477021438571423
mp-567545,K(In3Au2)2,-0.257564454295453
mp-553966,Li(CuO)2,-1.231982739666667
mp-707441,SnH12Pt(N2Cl3)2,-0.8173851870833331
mp-9230,KAlAs2O7,-2.218596720204545
mp-641661,XeF6,-0.786231759375
mp-5541,ZrVSi,-0.8084054849999991
mp-991652,VCu3Te4,-0.45333379958333303
mp-849459,Li2FeO2F,-2.286276155277777
mp-861982,PaGa3,-0.384041922499999
mp-770546,Li2Mn2P2O7F2,-2.641869716620964
mp-541687,K3GaSe3,-1.269708642325892
mp-974049,Hf3Pt,-0.443634357499995
mp-3040,TbCo3B2,-0.470916637499999
mp-707391,Na3AsH24SeO15,-1.3492861207723101
mp-864630,LiMg2Hg,-0.24106537895833502
mp-20673,Mg(FeGe)6,-0.144955848846153
mp-18645,Sc5(In2Rh)2,-0.6666346156060571
mp-774246,Nb9VO25,-2.970839276999999
mp-567698,CsTiI3,-1.2629454575977
mp-1020164,Na3LiP2O7,-2.639629860135151
mp-766256,YTmO3,-4.018697117750002
mp-766870,Mn5O9F,-1.852129588643678
mp-861881,LiGeAu2,-0.32062257458333404
mp-569451,Sb2Pd5,-0.446073763809522
mp-1009264,NbCo,-0.025045045000000002
mp-653559,P4Se3I2,-0.30426495506696305
mp-554140,TlV3(CrS4)2,-1.095917878809524
mp-754341,Ho2TeO6,-3.019075734444444
mp-757715,Tb(BiO2)3,-2.189612262416668
mp-777559,LiFeF4,-2.799291692222221
mp-2797,YCu5,-0.192909463333334
mp-504644,KCeF4,-3.940926392458333
mp-4602,Tb2Ti2O7,-3.775055662045519
mp-21949,K4PbO3,-1.4675466465937481
mp-7753,MgPd3,-0.47724602249999104
mp-973874,LiLa2Al,-0.218679961666666
mp-600052,SiO2,-3.256982102333334
mp-631381,TeRuSe,0.8489538203124971
mp-863880,Li6VFe5O12,-1.9697631345833342
mp-542681,Na3In2Ag,-0.191838028749998
mp-865521,LuI3,-1.592844125416666
mp-5920,LiAlGe,-0.291353459444444
mp-18969,FeCO3,-1.789342252
mp-866143,TiBeRh2,-0.791811782083327
mp-9605,Hf3Si3Ni2,-0.9066892843750011
mp-764720,LiFe2(BO3)2,-2.278344781969696
mp-753691,Y2Bi2O7,-2.514923455
mp-772290,LiAgO,-1.254481989166664
mp-779074,Li8Mn7Fe(BO3)8,-2.48377749553161
mp-4813,NbAlNi2,-0.431075287499998
mp-556108,DyTiClO3,-3.538176204166665
mp-19986,DyGeRu,-0.717329469722219
mp-780402,Sc2Ti2O7,-3.67083449810606
mp-26467,LiCuPO4,-2.188822850782312
mp-763575,Li10Co(SiO5)2,-2.425933910797102
mp-973592,Ho2Ge2O5,-2.281445611666665
mp-556979,CsSmGeS4,-1.5614509135221661
mp-28724,Gd2CI,-0.8524399124999991
mp-23358,Hg5(ClO2)2,-0.752103948409092
mp-25943,Li2CuP2O7,-2.412108247996031
mp-3967,NaNO,-0.9619318771264371
mp-773501,Li3MnV2O6,-2.367837964410919
mp-650715,Gd2Be2GeO7,-3.251185185416666
mp-863736,Ho2OsAu,-0.5996726805468741
mp-13042,NaSr3TaO6,-3.16318817761024
mp-764496,Na14Ni2O9,-1.391473318972413
mp-18168,TlZnPO4,-2.22510710185374
mp-1019892,La2B8O15,-3.105855060533333
mp-569687,CuHgSeCl,-0.422759308765627
mp-680247,K3P6S6N7,-0.798602928277596
mp-3551,TbAgTe2,-1.128376059166666
mp-777766,Li3NbHO2F7,-2.717511363125
mp-694917,Na4CaFe4(PO4)6,-1.711907117266009
mp-1001914,Li2SnIr,-0.233743280416666
mp-560412,GdP4H4NO12,-2.384276064594155
mp-730972,UP3H10ClO8,-1.541017703540372
mp-21105,PuSi2,-0.575234832916668
mp-684970,Cu19Se11,-0.060742821072915
mp-1359,NbIr,-0.519617979999999
mp-27478,Na3PaF8,-3.6072790283333322
mp-11373,DyTlPd,-0.732270892777775
mp-12521,SrNi3Ge2,-0.445394130833329
mp-989554,LaMnN3,-0.8285514331465521
mp-974589,Re3Mo,0.10701953843749801
mp-24333,UH12(ClO2)3,-1.437660061363636
mp-771523,LiCr2O4,-2.2436480015476192
mp-754191,La2Ti3O9,-3.628609801785715
mp-17113,Sm2Ru2O7,-2.54245442181818
mp-972733,Si3B,0.9085927355208331
mp-568954,Nd3CuGeSe7,-1.5846004424088531
mp-5069,La(MnSi)2,-0.645360666793104
mp-1111,Mn5Si3,-0.46220868530172504
mp-973882,Lu2PdRh,-1.034846963333329
mp-571547,Te2Au,-0.08118413875000301
mp-34361,Tl9BiTe6,-0.46176819375000105
mp-978991,TmMg5,0.00019328233333200002
mp-691121,Sr3La5Mn8O24,-2.8297174494612083
mp-662702,NaIO4,-0.778458603563218
mp-980426,TmAlAg2,-0.353009867499999
mp-1019778,K2Li3B(P2O7)2,-2.740575714364087
mp-21154,TbMnGe,-0.48495926403256706
mp-764900,VOF,-2.852374580833333
mp-567093,Yb(SiOs)2,-0.7965373470000031
mp-573321,TePdI2,-0.5396094154166661
mp-22596,Ni3(PbS)2,-0.475795109999998
mp-979412,Th3B,0.533331231093754
mp-770591,Li3MnAlO4,-2.457687406714559
mp-1018120,TmSb2,-0.403847810000002
mp-738624,SmP2H9O11,-2.036556515675465
mp-300,YbPt3,-1.184153733750001
mp-13486,LaCoCu12,-0.076066935714292
mp-977454,HgPd2Au,-0.159579113125003
mp-5840,LiScO2,-3.344621143333333
mp-973191,LiTl3,-0.08676243916666901
mp-11749,Tm5(SiSb)2,-1.028847574444445
mp-18869,Na4Mn2O5,-1.87743784648903
mp-561400,NaZr2AgF11,-3.379161184536398
mp-10487,RbSb,-0.5151359468749981
mp-21007,SmSnPt,-1.066925606666668
mp-765894,Li5VF8,-3.151178071190476
mp-997015,PbAuO2,-0.9499197774999991
mp-864651,Ta2NbRu,-0.283485304916673
mp-1558,SrPd2,-0.634736306666662
mp-866660,K3P2AuSe8,-0.8266830439132631
mp-10504,ScB4Os3,-0.450703342083333
mp-29549,Si(PH2)4,-0.045422894377288005
mp-780409,La4Al2O9,-3.7910096510000013
mp-554681,ZnS,-0.9624981687276771
mp-755480,KRbO,-1.089603731583333
mp-552663,LiScAs2O7,-2.372905768939393
mp-1019317,TcB2,-0.472480345000001
mp-567818,Sm(NiAs)2,-0.7867808980000001
mp-978845,Sm3Sc,0.034707054999998
mp-675770,Nd3U2O10,-3.8465635374999962
mp-1018757,LaZnGa,-0.608802501666668
mp-37879,LiYSe2,-1.953484129947916
mp-759185,LiSb(PO3)4,-2.493897682605819
mp-9972,YSi,-0.8982283075
mp-974869,Rb3Nb,1.181301844375
mp-573810,U2Te5,-0.8960931192857191
mp-540022,MnPO4,-2.420213610428982
mp-752501,LiSiBiO4,-2.504663663690475
mp-866661,K3Dy(AsS4)2,-1.180132236315474
mp-31229,Na4(BSe)9,-0.48751607495958904
mp-1018018,PdN,0.8740515875000001
mp-768262,V3F10,-3.053199671923077
mp-20725,PbO2,-1.299647031666666
mp-772797,Ti2Cu(PO4)3,-2.805604998088624
mp-974795,Rb3Ti,0.900219208541666
mp-7117,LiAlSe2,-1.276307118072917
mp-2210,ZrCu,-0.10770546
mp-1016827,MgGeO3,-2.040783233
mp-31328,MnInPd2,-0.391472963649423
mp-10164,NaGaTe2,-0.7916758093031631
mp-560853,Tb3Si2S8I,-1.7088464075
mp-557538,Na2Gd2MgSi4(O6F)2,-3.391383516424289
mp-10059,ZrCo3B2,-0.48141045666666504
mp-560127,K2MnF6,-2.894356403047892
mp-561385,SrTeO3,-2.378653411500001
mp-753917,Y2HfO5,-3.949675898125001
mp-554749,P3IrO9,-2.230996575815017
mp-6305,K3TiO4F3,-2.434443654098484
mp-31098,YB2Ir3,-0.680867834722216
mp-695800,KScAs2(HO4)2,-2.145890091767857
mp-30535,Li2BeH4,-0.14474939476190501
mp-29824,La3RuI3,-1.292993156428572
mp-978009,HgOs,0.9914836774999991
mp-769347,MgSO3,-2.2581497655
mp-30555,TaGaCo2,-0.345240171208333
mp-772835,K2NdPCO7,-2.7532859430535703
mp-7824,K2ReF6,-2.765490939666662
mp-1830,NpTe,-0.7611560177083341
mp-23257,IF5,-1.969305789499999
mp-995218,H4C5O2,-0.525920091363637
mp-21030,Ti3Sn,-0.316434754999999
mp-547125,TbBi2ClO4,-2.462889460833334
mp-768678,LiSn2(SO4)3,-1.86761311837963
mp-779729,Na2Ti2O5,-2.997387182713922
mp-625803,Sr(H8O5)2,-1.3999461790740741
mp-19007,V2PO5,-2.605111105580362
mp-972471,Sm3Ho,0.028807826249998003
mp-557824,Rb2(ReS2)3,-1.053173752727272
mp-672335,YIn2Ni9,-0.21088979444444303
mp-775699,Li6V3Sb3O16,-2.246898491071429
mp-768326,Na4Sn2C4SO16,-1.925655319741379
mp-604120,PH6NO4,-1.419425583095237
mp-775931,Li2FeS2,-1.079391603333333
mp-28952,PdSO4,-1.4070624454166651
mp-777427,Li4Mn2V3Sn3O16,-2.260707690864121
mp-558186,RbLu3F10,-4.321325706607143
mp-19973,LaCoGe3,-0.5843099109999991
mp-978284,Na2P3HO9,-2.492951431529146
mp-5052,TiCdO3,-2.632716396666666
mp-756376,Li3Nb4ZnO12,-2.760017798499999
mp-1006057,LaPrIn2,-0.6270155366666651
mp-763291,V3O5F,-2.603501487777776
mp-772609,La2Zn2O5,-2.8553027550000003
mp-755061,SrCaI4,-1.867687607916666
mp-974865,NdY3,0.072005330624996
mp-1020141,Na2Al2Si3O10,-3.128102243397567
mp-22060,Nb3In,-0.0492185075
mp-782650,LiMnP2O7,-2.537071652550007
mp-687227,MnSb2Pb5O11,-1.737715705417423
mp-30253,Na10SrSn12,-0.32745206173913105
mp-756188,LiCu3O4,-1.150572486041666
mp-91,W,0.0
mp-21922,Te3(PbO4)2,-1.556695618333332
mp-5082,Nd2Si3Rh,-0.9034067991666661
mp-5072,Rb2HgO2,-1.303622809500002
mp-2541,SmTl,-0.37951780416667
mp-37108,Sr(NdS2)2,-2.389421105892856
mp-755231,LiTeO3,-1.7506827875000002
mp-975797,PrSm3,0.031312277083333
mp-768305,Sr2HfO4,-3.583256665714284
mp-569698,UAl2Pd5,-0.789720110624998
mp-8957,Na5TaO5,-2.318986056293624
mp-625415,Tb(HO)3,-2.2404450850595232
mp-977568,ZrSnPd2,-0.752581591250002
mp-864786,Yb2PdPt,-1.2305554850000031
mp-999059,Ti2GaFe,-0.238037986041667
mp-775994,Ti3CrCu2(PO4)6,-2.7055280024404773
mp-4291,Ho(NiGe)2,-0.681652212999996
mp-580480,Mn8Zn14Ga27,-0.098640029544013
mp-569408,K(CoAs)2,-0.38639210245000105
mp-6548,K2La2Ti3O10,-3.431758464970588
mp-8468,Sr(SbPd)2,-0.855555668999997
mp-865090,NaAcTl2,-0.37077214687499804
mp-758868,MgBP(H3O4)2,-2.066411199390757
mp-13363,SiPt3,-0.539309381249999
mp-977057,NpAs3,-0.6121987159375021
mp-770456,Li6Ti2O7,-2.7981477254444442
mp-624190,GePbS3,-0.7325704929999991
mp-541459,KSnPO5,-2.503160578205357
mp-779959,Li3Co2(NiO4)2,-1.4924672886666661
mp-972036,WN,-0.174125285208337
mp-558924,Na5Ga3F14,-3.008649639063479
mp-753277,LiAgF2,-2.104387041666667
mp-560425,Sr2Cu(BO3)2,-2.770848755416667
mp-8597,ScB2C,-0.6114847759375011
mp-2490,GaP,-0.508916133988096
mp-753098,LiCuF2,-2.229860786666666
mp-30758,Li2MgPb,-0.22759561291666802
mp-989569,Rb2NaPbF6,-2.76065953163793
mp-41191,Na3Ti2P2O10F,-2.991129180838349
mp-600124,MnNiSb,-0.42720125149425003
mp-634381,V2Zn2O7,-2.139666292272728
mp-756348,Li2FeS2,-1.064458409333333
mp-619064,PrMnGeO5,-2.6750331186997123
mp-32581,Pr2Te3,-1.716815145666669
mp-766393,Li7Ti11O24,-3.227157321190476
mp-979234,Sm3Y,0.015621406250001002
mp-882,Ti6O,-0.9049613478571411
mp-976322,Li3Pt,-0.45310387178571404
mp-30877,SrTl2,-0.43185497166666603
mp-571065,TiBr3,-1.620029079583333
mp-780876,Li6Fe(OF)3,-2.451843423653846
mp-15986,Hf(CuP)2,-0.6142256198571361
mp-753662,K2Mg2O3,-2.264156577785714
mp-22873,SmBi,-1.151759717500006
mp-7332,NdP5,-0.6451083537301581
mp-17709,Na2ZnSiO4,-2.483276484407326
mp-691065,K6Ba2CaU6O24,-3.333933471884615
mp-8635,Zr,0.056982134999998005
mp-18610,Sm2SiSeO4,-3.393738472792969
mp-973266,Lu3Al,-0.233513876249993
mp-669498,K2Pt(NO2)4,-1.028450217966666
mp-974270,Na3Al,0.180173110086206
mp-13230,K3YF6,-3.581831450174999
mp-849520,LiCo3(SiO4)2,-2.205320383095239
mp-20811,UCoSi,-0.367630389166664
mp-1009471,NbN,-0.606419629374999
mp-10348,LaSc3(BO3)4,-3.471816469333333
mp-3839,GaCuTe2,-0.34634194499999804
mp-20234,Li2BPt3,-0.624376497638891
mp-850999,NaCr4O12,-1.627743441551724
mp-569819,Th7Os3,-0.37607980100000304
mp-974842,KPtO3,-0.950692176449999
mp-669528,Na2UO4,-2.997655847179802
mp-3869,TbBRh3,-0.7850072811666661
mp-21182,Sc3P2,-1.378392458190475
mp-1013643,Sr3BiP,-1.095449884170227
mp-760122,Li2CuF4,-2.506256717142856
mp-985592,Li6PS5Cl,-1.320599137087911
mp-759933,Li2Sn(BO3)2,-2.46593096
mp-753418,SrNd2O4,-3.547404760714285
mp-16287,NdRh3C,-0.385634338500001
mp-684679,Sb6O13,-1.781462497368421
mp-1007637,KNaH2,-0.23584965781249803
mp-569343,Tb4Mg3Co2,-0.13964566574074
mp-569112,Li3CaMnN3,-0.79806856849138
mp-510709,SrAsH3O5,-1.953365558624999
mp-7365,Sr(SiAu)2,-0.5201371719999991
mp-12798,Ni3Pt,-0.069345527499999
mp-29363,Rb3GaP2,-0.399427311547619
mp-560900,RbSb2C2O4F5,-2.240041355
mp-19336,Nd2MnCoO6,-2.794713231293103
mp-28591,Na4HgP2,-0.458930900493198
mp-979258,Tm2CdHg,-0.37233478812500403
mp-7061,NdZnAsO,-1.96026755375
mp-767192,Sn(PO3)2,-2.409540777420634
mp-975634,Pr2Ge5Rh3,-0.813258272333332
mp-30227,Rb2WCl6,-1.785055874999996
mp-1332,Si3Mo5,-0.398960580625001
mp-763345,Li2VO2F,-2.611060418194445
mp-999507,MnSn,0.147406801034481
mp-977593,Tm2CuTc,-0.17863062303728203
mp-778857,Li5Mn8(BO3)8,-2.437719643854405
mp-21601,Tb(SiNi5)2,-0.43810382512820306
mp-771199,V3FeO8,-2.2386753125
mp-18220,LiAlSiO4,-3.210481965714286
mp-7769,Th2SN2,-2.296756592062496
mp-24154,NbH2,-0.24444091916666602
mp-557290,Na2Si2O5,-2.8373910603065142
mp-571554,PrAlSi2,-0.439967944166666
mp-20878,PbO,-1.459788030781245
mp-1014138,ZrB,-0.468956122500001
mp-769592,Na3VPCO7,-2.368112139906214
mp-549475,TbBi2BrO4,-2.412139328958334
mp-3018,Nd(MnSi)2,-0.6136462312931
mp-759183,K2Mg(H2N)4,-0.5305159769666671
mp-532789,Li6Nd6Sb(TeO8)3,-2.7075753735
mp-979,ZrSb2,-0.631527129583332
mp-571021,K5InPb8,-0.20637432663691002
mp-8958,RbPd2F5,-1.8879882734375002
mp-865829,Lu2CuIr,-0.6976692708333331
mp-863076,NbBiO4,-2.452395296666667
mp-759324,Yb(Bi3O5)4,-1.4524341318181841
mp-24367,Na2AsH15O11,-1.430810694276158
mp-1018112,YSb2,-0.42864501333333205
mp-758708,Li2CuSiO4,-2.329954492083334
mp-16475,Sr11Sb10,-1.066274681904761
mp-753973,LiSnP2O7,-2.471913005238093
mp-18164,Tb3S3N,-2.302057476741069
mp-5594,Sc2Si2O7,-3.607447267727273
mp-6754,TmNi2B2C,-0.5216586322222231
mp-999195,RuN,0.49698666500000105
mp-961688,VGaPt,-0.12463609916666601
mp-8753,K4HgP2,-0.47685704692176906
mp-974408,Re3W,0.13042409875000502
mp-4886,NdCuO2,-2.610852319374999
mp-1979,HoPd3,-0.9342562887499991
mp-556399,LaTiI5O16,-1.5441004226449282
mp-1008835,OsC2,0.6011552450000011
mp-849498,Li5Mn6(BO3)6,-2.46936863569294
mp-557236,Te2As2Se8S(OF6)2,-1.65556613044753
mp-29802,Sc(NiGe)6,-0.39853352384615304
mp-9576,KSbSe2,-0.931563573609373
mp-30381,Li2GaAu,-0.552045800833333
mp-554216,K3Bi(PS4)2,-1.017656257038264
mp-972600,UCd(PbO3)2,-2.342703004499999
mp-561449,OsOF4,-1.936981908333332
mp-29895,Rb3Bi2I9,-1.177800070535715
mp-769635,Li2VCrO4,-2.431138037083333
mp-779864,Hf2N2O,-2.5245489639999983
mp-704546,RbNaCr2O7,-1.8896089055799372