material_id,formula,formation_energy
mp-768207,Li2SbPCO7,-2.238466273859126
mp-677597,Ta4AgS8,-1.276828668923074
mp-774155,Li2FeO3,-1.877959272777777
mp-778032,LiV2(SiO4)2,-2.788436506410256
mp-32594,Sm2Se3,-2.173472364187501
mp-568191,SrLuCuSe3,-1.764532271449653
mp-978953,SrAcTl2,-0.48993082687499606
mp-867673,Na3(Pt3O4)4,-1.030519672391549
mp-26762,Sn(PO3)3,-2.422285304340659
mp-980659,Tl3BiCl6,-1.3911309845000002
mp-631526,SiBPb,1.411171829027774
mp-17371,K2ErF5,-3.774154310874999
mp-766979,Sn4P2O9,-2.185173317952382
mp-23162,ZrCl2,-1.87860569
mp-31330,NdInRh,-0.6967559091666671
mp-567824,K2NaCo(CN)6,-0.273857259117457
mp-7017,NaNbN2,-0.884141047844828
mp-15953,P2Rh,-0.7267235144841251
mp-19443,WO3,-2.18494683875
mp-762643,LiFeSiO4,-2.506195764047618
mp-608031,NaNpCO5,-2.647696009391165
mp-975056,Rb3Al,0.35960448437499903
mp-9619,Th(FeP3)4,-0.6552373268067211
mp-755225,Li8ZrO6,-2.46284939711111
mp-348,TmPd,-0.983058719999998
mp-542121,Rb4Nb2Si8O23,-3.096012737702703
mp-561877,HoF3,-4.4940336612500005
mp-569059,HfI4,-1.216609491000001
mp-696457,ScP3(HO2)6,-2.28667560211039
mp-18771,Sr2CoWO6,-2.595678251999999
mp-557126,NaPr(Si3O7)2,-3.279038575706635
mp-558418,NaCrF6,-2.5277810439224133
mp-972,MnSe,-0.9278046767726291
mp-18568,Na2Ge2S5,-0.952312971139842
mp-16497,ScAlCu2,-0.429006133749999
mp-14249,Th(PS3)2,-0.9971788647585961
mp-29215,Te4P2O13,-1.9293201324185452
mp-18956,SmCrO4,-2.755208639166667
mp-18934,LiV2O5,-2.368561542916667
mp-556531,LiSi2BO6,-3.061145014375
mp-757546,K3Ta8O21,-3.220135257981763
mp-754514,N2,1.037821919999999
mp-13514,NdBO3,-3.465548755833333
mp-27880,Nb3Cl7,-1.41899573675
mp-757115,KSb5O13,-1.889657003013157
mp-5965,Tb3Ga5O12,-2.9694034615000002
mp-27477,TcOF4,-2.317763470555554
mp-865526,TmSb(PbO3)2,-2.3224190385
mp-972103,U3C,0.394410303750007
mp-696804,RbHS,-0.93314142875
mp-12725,NbAgO3,-2.147779927333332
mp-980948,SrCaIn2,-0.424974315833332
mp-557481,Sr4RhO6,-2.641628772727273
mp-540993,NaMo6Cl13,-1.173322407125002
mp-567768,YbCuGe,-0.7608316233333361
mp-557650,Sr3P6(N4O3)2,-1.882163874254657
mp-976955,Li2RuF6,-2.559949863703704
mp-559270,RbBa4Sb3O,-1.436434523055554
mp-975599,Pr3Er,0.040886200416665006
mp-1009222,MnTe,-0.61146877724138
mp-4952,La2MgNi2,-0.30613089599999904
mp-558553,Sr4Ti5(Si2O11)2,-3.4684068836190463
mp-764760,LiVOF3,-2.964274133055556
mp-780239,Na6Sn2B4SO16,-2.416467001980776
mp-17377,KNb(PO4)2,-2.821042000336309
mp-865696,HoGaRh2,-0.834815710624996
mp-30490,Mg3Cd,-0.050868198749999004
mp-29779,Lu3Ni2Ge3,-0.8194812774999971
mp-27141,P2H8O9,-1.782906276146617
mp-31103,Ni3Te2,-0.148926796
mp-8615,NbBO4,-2.954805746527777
mp-758835,Na(Cu3O4)2,-1.006200700758621
mp-572726,SbSeCl7O,-1.113874398859375
mp-684053,Sn6P7O24,-2.312303060608108
mp-7089,KMgSb,-0.632861344083333
mp-558754,Sb4OsC6(O3F11)2,-2.125042581282051
mp-558826,KHoBeF6,-3.8959814002499993
mp-865882,Li2SmIn,-0.40434758083333305
mp-764436,Mg5Fe19O32,-1.8731107129464282
mp-559313,SiO2,-3.254960442083334
mp-15012,KBS2,-1.125855964937499
mp-773047,KNb2PO8,-2.905036390991071
mp-15635,TiTl3F6,-2.653224633333335
mp-23022,KClO3,-1.148729709449999
mp-631686,TaAsPb2,0.7964247887916681
mp-559540,RbZnSClO4,-2.0373746340625
mp-557467,Li4Ca(BO3)2,-2.778116286666666
mp-1009548,PdN,0.9524291725
mp-756631,Nb2P2O9,-2.778430149175825
mp-28143,H8S5N2,-0.474756422166666
mp-23876,H8S(NO2)2,-1.081320564833338
mp-1019103,SmSbPd,-1.165989458333281
mp-555300,Na2Zn3(SiO4)2,-2.474306230628352
mp-2434,SrTl,-0.49406602999999905
mp-758156,Li3Sn3(PO4)4,-2.4468376684065922
mp-642817,KHO,-1.545817252
mp-942701,LiCoSO4F,-2.095388746041666
mp-568814,HoSnAu,-0.802268359999997
mp-16852,Ga7Ni3,-0.300550506999999
mp-850889,Li3CrP2O9,-2.431658720452381
mp-2267,HoB2,-0.672561126666667
mp-534773,Na2Al17Si11B7(H3O31)2,-3.070061787470717
mp-1005690,Sm2Co12P7,-0.7564911063095231
mp-975608,Li2TlPt,-0.434467043333331
mp-568831,Pr2Sc3Si4,-0.7594424012037041
mp-1089,TiIr3,-0.7329219958333311
mp-20145,TiGaCo2,-0.515181305208333
mp-997089,NaAuO2,-1.107666330344827
mp-556633,Na3VF6,-3.084973801000001
mp-1684,ZnAu,-0.22188130749999802
mp-604537,MnGaNi2,-0.41999297562068905
mp-29708,Hf(Te4Cl3)2,-0.7901597784444561
mp-779602,Li3Bi3P8O29,-2.2827754626079733
mp-1001831,LiB,0.154845070416666
mp-770517,Li9Al(NiO4)2,-2.01564538625
mp-704236,Mn(PO3)3,-2.454409629181508
mp-865469,Ti2MnRu,-0.504777263649424
mp-5603,NbCoTe2,-0.582494188333333
mp-581778,Rb2CeCu3Te5,-0.8717317907575751
mp-972463,Tm5Sb3,-0.991332007500002
mp-978652,SiHg3,0.42715960749999904
mp-6326,LiAlSiO4,-3.204281977976191
mp-769119,YbScO2,-3.128044478125002
mp-1008903,MgAgSb,-0.27852765555555203
mp-775008,V3Cr(PO4)6,-2.522385589642857
mp-5803,NbPO5,-2.929560521734694
mp-31953,Li2MnP2O7,-2.633724484073617
mp-706621,KB5(H2O3)4,-2.125727549733974
mp-18484,La3MnFeS7,-1.8150699733692521
mp-26746,SbP2O7,-2.266617494928571
mp-11567,ScZn12,-0.136576282692307
mp-556477,Lu2O3,-4.076956099416664
mp-662556,Re(TeBr2)2,-0.789544167261904
mp-705430,MnO2,-1.7108035754214561
mp-756034,NaSmO2,-3.020317419094827
mp-773188,Na3MnBSO7,-2.235364233364279
mp-977371,PW4Cl11,-0.878774893779763
mp-28542,Na3ErCl6,-2.239124308833334
mp-754327,Ho2CuO4,-3.096600875714283
mp-570611,PrInAu2,-0.6701467695833301
mp-676167,Tb14Ti10O41,-3.741473997256411
mp-757336,Hf2N2O,-2.529472304749998
mp-570637,U3Si,-0.23813254000000902
mp-2204,Nd3Te4,-1.676373578928572
mp-29463,LiBeN,-0.9938989936111111
mp-2990,TmAgSn,-0.527772531111109
mp-757905,Li3Ti(PO4)2,-2.810185670901361
mp-972536,Sm2TlAg,-0.32710896125000305
mp-761032,Hf5N5O2,-2.37717903875
mp-13686,Nb5Si3,-0.7232154362499971
mp-1632,NdB4,-0.6316373780000001
mp-861901,LiGaCu2,-0.204676986666665
mp-561448,Na4Ce(As2O7)2,-2.163519586435531
mp-977402,NpInRh2,-0.44766913468748704
mp-769210,Tb2Pb2O7,-2.475216415303029
mp-2275,UF6,-3.482456654642856
mp-780512,Li2Mn3(BO3)3,-2.449190817821164
mp-772663,MnH4(SO5)2,-1.584779546937119
mp-768765,Li2Bi2B2O7,-2.246813927692307
mp-2672,K2O2,-1.284958853625
mp-562501,SiP3RuO11,-2.473546784620535
mp-35015,NaBiSe2,-0.8149784870312501
mp-5132,YPO4,-3.477044902440459
mp-10914,K3Cu5O4,-1.092671264104166
mp-21531,U2Mn3Si5,-0.44155427087930604
mp-30993,LaIO,-3.169535276666668
mp-849537,V6O11,-2.451981873235294
mp-972869,Sc2GaPt,-0.9098154593749991
mp-10133,Sc3BPb,-0.613486305500001
mp-1552,Mo2C,-0.13904961666666502
mp-7999,Y2Si2O7,-3.655593218181817
mp-23672,PH6NO4,-1.471741566011903
mp-758770,Li2Mg3Ti6O16,-3.300521523765431
mp-978273,Mg3Cd,-0.033276464999998
mp-977556,MgScCd2,-0.22856628249999902
mp-13401,Yb(CuGe)2,-0.501812022999999
mp-850255,LiFeP3H8O13,-1.8853605087408432
mp-29379,K3BiTe3,-0.9586009623214281
mp-771241,Ta3AgO8,-2.944382028847221
mp-31212,K2MgF4,-3.367804555642856
mp-971859,Zn3B,0.616645512708332
mp-30298,KAsO2,-1.885300383687499
mp-541709,Nb3Tl2Br9,-1.259257072619048
mp-769262,K5YO4,-1.961183862124999
mp-567690,TbMg4Cu,-0.096382321944445
mp-2751,YbSn3,-0.32569657375000105
mp-764319,Li4Cr2Ni3Sb3O16,-1.918672852619047
mp-27252,TlCdI3,-0.826551342166668
mp-998227,KHfO3,-2.943229516449999
mp-4854,NdScGe,-0.8310821775
mp-530748,MgAl2O4,-3.342882417142857
mp-669914,PrTlPd,-0.066103863888891
mp-867242,Sc2ZnGa,-0.520936634375
mp-559795,Rb7NaZn2O6,-1.450949288367457
mp-760476,LiU3O8,-3.556688546111109
mp-1698,SrSn,-0.779094372500001
mp-571323,La12C6I17,-1.417355740428572
mp-695780,Li2MnP2O7,-2.650895510115285
mp-776732,Li2Fe3F8,-2.686252742051281
mp-27383,Nb3CuO8,-2.697000756458333
mp-675779,Li2Mo3S4,-1.144519545740736
mp-3999,Y(SiPt)2,-1.1185256040000011
mp-976406,MgMnPt2,-0.5800832007327561
mp-765617,Li4Fe2Cu3Te3O16,-1.515248503333333
mp-765277,LiSnPO4,-2.39541561590136
mp-20724,Mg2Pb,-0.036373903333329
mp-779307,Li3Fe(BO3)2,-2.2076366248611112
mp-517,TaSi2,-0.44631093577778
mp-559043,KLaGeS4,-1.5889571846071422
mp-9615,LiTiS2,-1.677127175416665
mp-7381,TbMg3,-0.056084945416665005
mp-9559,Nd3IrO7,-2.991003283181821
mp-774344,Mn5Sn(PO4)6,-2.422929928680897
mp-866027,YbRh2Pb,-0.661964873749994
mp-8612,Sb2TeSe2,-0.498195292270844
mp-6941,Y2Si3N4O3,-2.363416295416667
mp-10135,YbBPd3,-0.657622925499998
mp-15011,NaBS2,-1.018834450969826
mp-769510,Li5Ti4Co3O16,-2.417654663035714
mp-977545,ZrTc2W,-0.311339616250002
mp-3939,Sm(SiNi)2,-0.807790411
mp-568100,ReNCl4,-0.545501313842592
mp-3808,K2UO4,-3.059945037785713
mp-865327,TmHg3,-0.363315783124996
mp-9692,K2GeSe3,-1.096713106088544
mp-258,ZrV2,0.08338466999999801
mp-850913,LiVOF3,-2.949631603055556
mp-561062,NaSb3(PO5)2,-2.29303750261969
mp-23705,Na3AlH6,-0.271020285249999
mp-23894,LiAs(HO2)2,-1.717554438541666
mp-680944,Nb2O5,-3.033832735357143
mp-5948,Th(CuSi)2,-0.5496728859999991
mp-542154,Mo3Pd2N,-0.273641275416666
mp-974065,LuScPd2,-0.9487532604166621
mp-540270,MoP2O7,-2.400602837428571
mp-21035,Sc3PbC,-0.7973078749999981
mp-18347,KAlTe2,-0.963640327187501
mp-638,SrZn5,-0.22022309249999902
mp-558383,Na2CrF4,-2.903762755394088
mp-8058,YAsO4,-2.820636907916674
mp-5706,SnPSe3,-0.28731242203274404
mp-437,MgAu,-0.591989967499998
mp-9435,La3ZrSb5,-1.220513247777777
mp-28517,Tl6SeI4,-0.772034905667617
mp-755015,NaLaO2,-3.011510543469827
mp-774433,LiMnPO5,-2.339191703550903
mp-631520,TlBTe2,0.8922200985416651
mp-30627,DyZn5,-0.33201823166666605
mp-21447,Nb4CoP,-0.42675636827380903
mp-642279,U6Fe16Si7,-0.367947135862066
mp-2896,Pr(GeRh)2,-0.8861227203333301
mp-1016930,ZnGeO3,-1.410527672
mp-636256,LaCu6,-0.125284451785717
mp-10734,Ti4O5,-3.091059832037038
mp-1017983,TiMo3,-0.134486429166667
mp-12156,K3Sb5O14,-1.972148698374999
mp-1018695,EuBiAu,-0.7140231450000081
mp-1532,NpNi2,-0.19839139791666502
mp-648932,Nb2PS10,-0.964960996703299
mp-709066,Rb4LiH3(SO4)4,-2.044295151056547
mp-20757,MnAlGe,-0.20761954431034402
mp-753173,HoIO,-3.092498383333333
mp-567749,Y(SiOs)2,-0.8093397199999971
mp-696157,NaP(HO)6,-1.7651883006087261
mp-763504,Li3Mn8(OF3)4,-2.673299614572158
mp-9241,HoCoC2,-0.340797066249998
mp-23644,Hg3AsClO4,-1.088804370833336
mp-627119,VHO3,-1.91708650725
mp-569349,Rb2HgPSe5,-0.8568534768179571
mp-8145,RbScO2,-2.997647701874998
mp-703343,Li2Sn(H5O4)2,-1.549569960674603
mp-757945,LiSnPO4,-2.41840282637755
mp-866191,Li2YbSi,-0.253610598333333
mp-541587,U3Cu2Se7,-1.186467960533843
mp-2478,NbSi2,-0.5183990577777771
mp-779703,Na4Sn5O12,-2.028080254072249
mp-24391,MgB3H15O13,-1.761421472539063
mp-10234,Sr2BN2F,-2.023247366944444
mp-4170,NaTaO3,-3.03523816674253
mp-865842,Ti2OsRu,-0.8354517870833361
mp-561255,ZnBi6P2(O7F)2,-2.099301503571429
mp-22980,Li2CoCl4,-1.464524376190477
mp-772782,K2CePCO7,-2.72886538742857
mp-757155,Nb(PO3)4,-2.585572099915967
mp-973456,Lu2TcAu,-0.525055783645832
mp-1184,La2C3,-0.31321403149999805
mp-14782,Na6MnTe4,-1.056823432225707
mp-505089,Li4TbF8,-3.335848798397434
mp-760377,Li2Nb(PO4)2,-2.704159566611721
mp-29688,Ge3Cl8,-0.9114883061363651
mp-7100,LaOF,-4.256614436666667
mp-772149,Sm2Ge2O7,-3.001400597954545
mp-560553,IrF6,-1.533848953214284
mp-541813,RbMgF3,-3.5020507615
mp-780671,SrTaNO2,-2.743771133966666
mp-557825,H4CN2O,-0.6582640012500011
mp-5505,U2TeN2,-1.7239247895
mp-19352,KAl(MoO4)2,-2.369613685604167
mp-21834,Nd6Fe13Sn,-0.08819616225
mp-979263,ThMg3,0.071254631250003
mp-12565,MnAu4,-0.239417388896549
mp-979942,Yb3V,0.122646516249999
mp-20305,InAs,-0.38850980624999903
mp-601348,LuP2H4NO7,-2.326774665730158
mp-779165,Li2MnF5,-2.935083140262213
mp-542515,Gd2Te4O11,-2.279731501274494
mp-6576,YNi2B2C,-0.503124492222222
mp-34260,ZrF4,-3.894550459999999
mp-674897,SrNd3AlCuO8,-3.082470131249999
mp-17715,SrTa2O6,-3.487587180518501
mp-157,P,0.020214559523809003
mp-560981,NaMg4(PO4)3,-2.9804673033903932
mp-763878,LiMn2O2F3,-2.516813233649426
mp-12668,Tb2SO2,-3.575732090166665
mp-759550,Li3Sb3(PO4)4,-2.399846410714285
mp-862365,Sc2OsPd,-0.6930195999999981
mp-863716,Pm2IrPd,-0.821508691250002
mp-761153,U6O11,-3.605931631470585
mp-973267,KTcO3,-1.982492657449999
mp-763484,Fe4OF7,-2.4161994366666653
mp-41837,RbTiZnOF5,-3.190915187314814
mp-126,Pt,0.0
mp-850277,SrCaI4,-1.893001050833333
mp-645555,KUVO6,-2.987946608583333
mp-707457,KMg2B12H19O30,-2.176500097203125
mp-10527,Y2AlSi2,-0.771901586000001
mp-1013525,VS2,-1.200986238333333
mp-4911,Th(CuGe)2,-0.483107099999996
mp-17490,Rb5SiAs3,-0.385169219166666
mp-7595,GeF2,-2.154149663333333
mp-3618,Sc2FeSi2,-0.746578657
mp-31560,Li2Co(PO3)4,-2.506559965802004
mp-770731,LiZr2O4,-3.278412598690475
mp-22033,Ti5Sb3,-0.546713381666666
mp-919,HoTe,-1.4516875825
mp-973740,MgAs,-0.516920165062499
mp-774408,Li10Mn3Cr3(NiO8)2,-2.055615720797836
mp-647116,ReNCl4O3,-1.129617614583333
mp-571505,Rb2In3,-0.12451336599999802
mp-733598,H9PtN2ClO2,-0.8006499987499981
mp-510577,LaNiSnH,-0.650135114062499
mp-510441,YInPt2,-1.081687851250002
mp-23979,K3H(SeO4)2,-1.653296498049107
mp-11236,MgZnAg2,-0.152613897083332
mp-28776,K2UBr5,-1.902097400250002
mp-7126,TiSnSb,-0.32363007638889
mp-761033,Hf3N2O3,-3.111325125
mp-627575,K4Zr6CBr18,-1.866527892551722
mp-17158,Ta3Co3C,-0.32771451850000005
mp-761857,LiNb(BO3)2,-2.8009296196666673
mp-15071,Na6FeSe4,-0.9279304393318951
mp-767597,LiMnF5,-2.6751594244663393
mp-740714,LiB5H2O9,-2.571287556862746
mp-972071,V3Mo,-0.058626447500000005
mp-505274,Na2SO4,-2.199045198608374
mp-7898,Rb3As,-0.246090716249999
mp-568328,FeP4,-0.341843191714284
mp-18581,Hf2Co4P3,-0.9557616990476211
mp-504807,MgP2H20C4(N2O3)4,-1.198637366367781
mp-5149,NbAlCo2,-0.4162606125
mp-27580,Zn3(AsO3)2,-1.763953445
mp-775205,Li3MnP2HO8,-2.513076170397783
mp-1008617,YbAg2,-0.35908485500000104
mp-34116,Tm2MgS4,-2.075222479285716
mp-567655,Sr2C(NCl)2,-1.857765472142857
mp-18982,Sr3NiIrO6,-2.291196596818181
mp-571555,InCl,-0.907542843749999
mp-642736,K3H5Pd,-0.334479227222221
mp-997553,Fe4O7F,-1.460504610416666
mp-779366,LiCr(PO3)4,-2.545440239828041
mp-20103,TmInPt,-1.139411601111116
mp-772296,ZnCrO4,-1.672388557916666
mp-1007823,GaBN2,-0.6571503875000011
mp-22375,In2S3,-0.7216947956874971
mp-11519,NiSnRh2,-0.25160581124999803
mp-961652,ZrFeSb,-0.5048053033333331
mp-573563,Sm(CoP)2,-0.991340212857143
mp-643371,K2Sn(H2N)6,-0.40806944116666605
mp-976133,NaAsO3,-1.5804747567758621
mp-9416,La(CuO2)2,-2.044481595
mp-2645,YbNi5,-0.327261972499999
mp-862676,LiHoIn2,-0.362932850416664
mp-640057,K2OsNCl5,-1.369977844944443
mp-4920,Nd(GeRh)2,-0.892643749499998
mp-558393,Rb2Nb3Cl7O5,-2.460980845294118
mp-554279,Tl3Hg2S3ClO12,-1.560896924166667
mp-554258,SiO2,-3.25519786375
mp-760683,Li4Cu(PO3)6,-2.511693298316914
mp-22795,Pb2Au,-0.089213313333336
mp-769568,Mn2V3Cr(PO4)6,-2.61113540760331
mp-570876,NaNd(GaSe2)4,-1.180616801080665
mp-1016825,HfMgO3,-3.037705825999999
mp-541751,Ni4(Bi4I)3,-0.19002738342105402
mp-20466,Sn7Ir5,-0.29034646416666404
mp-977224,PrAs3,-0.663400151041663
mp-26113,LiTi(PO3)4,-2.75505324098545
mp-20565,MnCoGe,-0.182490710977011
mp-22317,EuGa2,-0.631049208333334
mp-17638,Rb3SbSe4,-1.098475425546881
mp-30914,UAl4Co,-0.338233413611119
mp-618,Pd7Se2,-0.16757863812499801
mp-554286,La6Ti2S8O5,-2.916625972698413
mp-636525,Zr7Ni10,-0.44854665000000005
mp-975883,PrNdHg2,-0.554989438541667
mp-770170,Li3V3(BO5)2,-2.5605884812962962
mp-707836,Na3H6Ir,-0.46972669274999906
mp-776359,YNb2NO5,-2.956997013333335
mp-18198,ScSnPt,-1.001755710555556
mp-777964,Na2BiO3,-1.6911094521264372
mp-680063,K3La2(NO3)9,-1.4860150922378041
mp-643154,Li3V2(PO4)3,-2.720508113696428
mp-849421,LiV2(PO4)3,-2.642242212486773
mp-10708,PrRh3C,-0.352597181333331
mp-773145,Li2Cr4O13,-1.701284757192982
mp-849399,Mn2OF3,-2.602728996310346
mp-759694,Mg2Ti7O15,-3.41487485513889
mp-9880,YB2C,-0.5124293602083321
mp-865170,GaFeRh2,-0.429486869374999
mp-651728,VSb2NCl14,-1.152036029305555
mp-8610,Li8PtO6,-1.913959471111112
mp-505495,KP4N7,-0.70487055078373
mp-10401,Tl2SnF6,-2.431131305555555
mp-21255,FeGe,-0.012572867083334001
mp-557024,SiO2,-3.201949248194445
mp-15362,Li3Nd2(BO3)3,-3.088789137941177
mp-636821,U6Ni,-0.018942877857136
mp-30530,TlClO4,-0.6997980705555561
mp-754598,Hg3SeO6,-0.876154645317715
mp-17697,KSmF4,-3.988549810791662
mp-545404,SrGd2Al2O7,-3.612123938749999
mp-20196,NbTe4,-0.6568609253333301
mp-541946,K2Th(PSe3)3,-1.027554080301487
mp-760400,Na5BiO5,-1.6656732319905951
mp-862661,LiEr2Ru,-0.319680523333332
mp-770516,Tb2(WO4)3,-2.761743254460783
mp-756854,Sr2LiNb3O10,-3.136871192083334
mp-733612,RbH3(SO4)2,-1.757586377232142
mp-862260,ScZn3,-0.313133792499999
mp-1011860,Na2CoP2O7,-2.4635583485036943
mp-770853,Li2CoPO4F,-2.537132745006614
mp-608314,Rb2ZnCl4,-2.010147393571429
mp-3992,PrSF,-3.3434663914930542
mp-7404,Na3SbO4,-1.9985106786422402
mp-680205,PbI2,-0.9178337199999991
mp-760462,Li5Ti(SiO4)2,-2.8423674162499992
mp-765508,V3(O2F)2,-2.659270063333333
mp-676360,NaNdS2,-2.061554267031249
mp-777681,Li3VF6,-3.1768297815
mp-554059,Sr2UZnO6,-3.195823640999999
mp-1004524,HPbI3,0.03798616875
mp-989609,YWN3,-1.199151632250007
mp-555896,Pr9(SbO)5,-2.3368891931578952
mp-15661,Sc4C3,-0.6238872749999991
mp-569109,MnBiSe2I,-0.6636415125237071
mp-771487,Na5Mn2P(CO4)4,-2.069508781871481
mp-568596,SmInAu2,-0.694418602916669
mp-28579,Hg3(TeI)2,-0.47491534154762505
mp-22461,Fe3Sn,0.08454933375000001
mp-696130,Li10Ge(PO6)2,-2.477580906304762
mp-20892,ZrFeP,-1.051520816547617
mp-775232,LiCr4(PO4)3,-2.411604022363095
mp-25579,YMo3O8,-2.339882802500001
mp-2114,YN,-1.999617329374999
mp-474,ErFe2,-0.12087615499999801
mp-558536,RbCdAuS2,-0.8898162174999981
mp-977119,Li3Be,0.24518802500000003
mp-567713,Nb3TeI7,-0.8219026524242501
mp-30609,ErTlPd,-0.648914547777773
mp-765511,Li6VO5F,-2.432587234230771
mp-556801,Na3B6PO13,-2.771391324294805
mp-6353,Y2Si4CN6,-1.360354627692308
mp-561384,ZrF4,-4.027388413750001
mp-3822,SrCO3,-2.6989622775
mp-13160,YZnGe,-0.671108328333332
mp-5327,Na4UO5,-2.6799839610517253
mp-769570,Na3Fe2P(CO4)4,-1.8673795130300301
mp-862893,ThNb4O12,-3.242060130196078
mp-9220,SmNi2B2C,-0.48028308805555603
mp-863365,Li2Sn(PO3)4,-2.526274191591478
mp-5634,NdOF,-4.1572077274999995
mp-771220,Li3Ti(CoO3)2,-2.201780326944444
mp-861898,Rb3GePSe7,-0.9534617048790921
mp-975,SF6,-1.853382890877975
mp-2175,TlF,-1.814429789999998
mp-760829,Na(CuO)2,-1.115233691775861
mp-558143,Pr4S3NCl3,-2.404059984469697
mp-759381,Li3Bi2(PO4)3,-2.477896700446429
mp-559783,Na3B(PO4)2,-2.678094229470736
mp-559790,K2Nb3Cl7O5,-2.4463073990882362
mp-759307,TiNb2O7,-3.169513764833335
mp-1535,TbSi2,-0.561173073333336
mp-14643,Er2Te3,-1.644872913333336
mp-23929,ZnH8(NO5)2,-1.166778536904761
mp-765750,Li5Cr2Fe3O10,-2.091160693833333
mp-31890,Li4Fe(PO4)2,-2.616678448507935
mp-582055,La7Ni16,-0.34516971499999904
mp-770967,Li2MnP2O7,-2.664677827615284
mp-7087,SiO2,-3.25362428
mp-25417,LiTiO2,-2.957393104166666
mp-686057,LiNbO3,-2.888663548416666
mp-762633,LiMn2NiO6,-1.6893179159195402
mp-18138,K2WSe4,-1.078622331625001
mp-9522,K(ThSe3)2,-1.791932539034722
mp-864715,HfInCo2,-0.281194352500001
mp-567710,KPr3Te8,-1.344887793645834
mp-776325,Sc2H6(SeO4)3,-1.858111050631794
mp-8869,Y2S2O,-2.934728989499999
mp-27672,Nb2P5,-0.5583525283163271
mp-17897,RbYP2O7,-3.133555994253246
mp-19163,SrWO4,-2.7457271574999993
mp-867846,TaTiRe2,-0.525172387250002
mp-14025,Zr2CuS4,-1.5954547421428562
mp-1708,YTe,-1.483786158333332
mp-774712,LiCuS,-0.8539796619444431
mp-864976,Mg2AgIr,-0.28380000041666503
mp-11596,PrBPt3,-0.846625818166663
mp-17827,Nd3SiAgSe7,-1.6107653583810762
mp-505510,NiAs2,-0.277716669583332
mp-774567,Er2TiO5,-3.900576050729167
mp-30120,K3BiO4,-1.639996911468749
mp-998173,RbPdCl3,-1.437161573499999
mp-770420,Li4Ti3Mn3V2O16,-2.651260027397372
mp-1002221,ErH,-0.40715236520833203
mp-20236,DyIn3,-0.521889153750002
mp-31269,Na2S2O7,-2.056864156614425
mp-23147,Na4Al3Si3BrO12,-3.060228327196402
mp-24705,SrCaB5H2ClO10,-2.7797512744166673
mp-18510,Sr2SiO4,-3.422024718214281
mp-567612,ScOs2,-0.380082790833332
mp-6272,NaEuP2O7,-2.942191504378638
mp-27793,Nb2Se,-0.598921481354165
mp-580234,Fe3RhN,-0.14610608499999903
mp-555816,KDy(SeO4)2,-2.011092390404512
mp-753891,ZrTiO4,-3.613995620555555
mp-676764,InCuSe2,-0.351030048281248
mp-569250,VIr,-0.6085838975000041
mp-739,TiP,-1.288060888571429
mp-27622,Na2PbO2,-1.575215994051721
mp-1007690,HgPt3,0.06453856875000201
mp-979114,Th3U,0.24476497249999302
mp-30156,LiMgN,-0.8088099351388891
mp-672651,Zr6Ni16Ge7,-0.590210391206894
mp-1008820,PdN2,1.417240296666664