material_id,formula,formation_energy
mp-29186,La(SiP3)2,-0.528079483303569
mp-569149,K2TeCl6,-1.356825606944444
mp-651582,Mn(InTe2)2,-0.49241366385470103
mp-770481,Ta9PO25,-3.300723760161223
mp-761992,Li2Fe2(CO3)3,-1.846123707604166
mp-771910,Ti2Mn3Co3O16,-1.895652168769158
mp-776000,Ti3Mn2Sb(PO4)6,-2.775856005381089
mp-849803,Li2Ni2S3,-0.905141222738094
mp-291,TiOs,-0.8292994383333291
mp-683616,Li5Ti7In(PO4)12,-2.9503784040052192
mp-28364,Rb2CdO2,-1.353627480499999
mp-11475,TmHg,-0.565094673750003
mp-780135,Li2Mn3(BO3)3,-2.46159901193881
mp-554540,Li5ReO6,-2.308085875486111
mp-7524,NbPSe,-0.8545214973288691
mp-540356,LiFe(PO3)4,-2.51493197260582
mp-19046,KMnO4,-1.453729503780173
mp-504669,KBiF6,-2.525346131843749
mp-5214,TiTe3O8,-1.9970033011111101
mp-709885,Rb4LiH3(SO4)4,-2.02271782891369
mp-19022,Na4FeO4,-1.625666475613027
mp-31031,La4PdO7,-3.360691400416667
mp-4425,Ta2Pt3Se8,-0.923180312570511
mp-768876,Na2Bi2C4SO16,-1.738561638610344
mp-7191,Sr3GaN3,-0.8072489794642881
mp-555079,ZnS,-0.9626829801562491
mp-569776,TaNi3,-0.32708908495833405
mp-776405,Li6Sb2S7,-1.080111171499999
mp-23209,SrCl2,-2.7500931783333353
mp-17747,Y3CuSnS7,-1.6939594264583322
mp-20447,U3Co2Ge7,-0.324113922916665
mp-640341,Mo3S7Cl4,-0.813296359977678
mp-9596,La(BIr)4,-0.582034891296297
mp-11668,Sm2(Zn2Ge)3,-0.409008294999999
mp-22643,Tb3(CoGe2)2,-0.7130191277777761
mp-560976,KNiF3,-2.636112260449999
mp-776644,Ti3Mn3(SnO8)2,-2.4185966859913792
mp-978917,Sn3B,0.9366946689583351
mp-3264,Th(NiGe)2,-0.7062082980000011
mp-7390,SrGe2,-0.5580997133333311
mp-697749,LiV2(PO4)3,-2.643238078458995
mp-14206,K3Ag3As2,-0.350068366468748
mp-976378,La3Sn4,-0.8684297457142881
mp-13967,Nb5(CuSi)4,-0.5321200861538451
mp-973930,NpBeO3,-2.969447077750001
mp-777700,LiFeF4,-2.761481392222222
mp-765857,LiCr(SiO3)2,-2.887630170333334
mp-758310,Li3Ti2(PO4)3,-2.8560770785297622
mp-30251,YAuO2,-2.564518633749998
mp-769171,SiGeO3,-2.477396069875
mp-973895,Ni3H,0.534606787812499
mp-644492,LuNbO4,-3.582251921944446
mp-570170,Mo15Se19,-0.5648101484466911
mp-10733,Sm2O3,-3.844915249500001
mp-568820,Pu2Co17,0.29488414986842204
mp-699445,K2P2H2O7,-2.335688082150183
mp-504570,K3FeO3,-1.634728775964275
mp-560937,Na3Si3SnO9F,-2.850484511419878
mp-20584,RbEuS2,-1.766576756875002
mp-613620,Rh2O3,-1.070025242249999
mp-3872,Mg(AlS2)2,-1.473232059285711
mp-570988,La2PBr2,-2.061309316928576
mp-989624,TiPN3,-1.057049672678572
mp-571544,KTiPSe5,-1.052739958993117
mp-778681,V3SnO8,-2.317558144583333
mp-771957,Ta2PbO6,-2.998794063574076
mp-27271,Tl8Ge5O14,-1.656802945987654
mp-778241,Li2V3F8,-2.962605184358975
mp-757431,LiSn(PO3)4,-2.4583809538558192
mp-555741,RbAu(SO4)2,-1.681593854374999
mp-3054,Li2CO3,-2.247751566111111
mp-864972,Mg2PdAu,-0.658968265000001
mp-625359,NdHO2,-2.8894026521875
mp-849709,Li4Ti3V2Cu3O16,-2.379518366190476
mp-5308,LaTa3O9,-3.512061433615385
mp-697331,Mg2NiH4,-0.33195147750000004
mp-770961,Li2TiMn2O5,-2.513370937586207
mp-782642,LiMn2(BO3)2,-2.424329086442007
mp-755634,Y2HgO4,-2.9200823325
mp-722330,Li3La2H6(N3O10)3,-1.4219291951500002
mp-761971,LiLaNb4O12,-3.09402372712963
mp-556454,SiO2,-3.2610372812499993
mp-531590,SrAl22O34,-3.421004158947369
mp-15709,LuCo3B2,-0.530217765833327
mp-8884,ZnTe,-0.6789112758333321
mp-8966,K2Sn2Se5,-0.982770607913194
mp-560209,Li9Al3P8O29,-2.8696699927988343
mp-23188,In2Bi,0.034497030000001004
mp-14023,Na3Li3Sc2F12,-3.5836517074568963
mp-608461,PaCl2O,-2.671728893958332
mp-767408,Na2PRuCO7,-2.066305996450122
mp-10175,KCdF3,-2.6754186824499993
mp-4917,LaAsO4,-2.852417035416668
mp-567224,Mg(SiB6)2,-0.102502673833332
mp-771267,LiZnFe7O12,-1.695330738492063
mp-754902,LiSbCSO7,-1.8903100514393931
mp-632,TmCo2,-0.24495784500000303
mp-16755,Mg(AlS2)2,-1.445273384999999
mp-9794,Rb2GeSe3,-1.110592218671873
mp-19975,Sr2PrO4,-3.063741813095237
mp-982730,Ho2ZnIr,-0.648375499999996
mp-770151,Li2VBO4,-2.520690990416667
mp-780147,LiMnSiO4,-2.567095916252053
mp-771774,Na2SiSnCO7,-2.365777487313218
mp-9107,NaZrCuS3,-1.436033395646551
mp-867282,Tb2IrRh,-0.843008208333331
mp-6567,LiNd(PO3)4,-2.8542567108002643
mp-32334,NiP2O7,-1.974979387678571
mp-11497,TbMg2,-0.045565300555554
mp-17887,SnP2O7,-2.486021810678571
mp-560266,Na3B5SO8,-2.536758188233602
mp-558193,K2Cu3(AsO3)4,-1.570008463071429
mp-550820,SmZnPO,-2.022121642410714
mp-862951,PmPbAu2,-0.6766938668749981
mp-11604,KSm2CuS4,-1.890096092156249
mp-504970,UH3,-0.46166175062499804
mp-771386,VBO4,-2.446932977916666
mp-867925,SrAcHg2,-0.5236201743750021
mp-770404,Li4V2Si(PO6)2,-2.699663980362812
mp-18462,TbGa3Os,-0.5664108360000001
mp-996985,HAuO2,-0.739993570312499
mp-764201,Li2V3O3F5,-2.880481744358974
mp-779260,Gd3SbO7,-3.3551680981818173
mp-30590,LaCu6,-0.114437729999999
mp-37014,GdPaO4,-4.141709236666668
mp-776003,Mn2V3Cu(PO4)6,-2.4918155573255323
mp-18720,Mn2CdO4,-1.862363835123151
mp-13583,Sc2Si2Ru,-0.8603050130000001
mp-2283,ZrCo,-0.3304633925
mp-972405,U3Cl,0.08938206354165601
mp-19944,Sr3PbO,-1.586021312999998
mp-766217,Sr4Cu2O7,-2.341121934615382
mp-696132,Zr5ZnPb3,-0.43759947000000204
mp-781707,La4Al2O9,-3.7910376603333322
mp-721299,H13S2N3O8,-1.151772950336548
mp-642803,Zr2HBr2,-1.17205070225
mp-861653,ThH3,-0.49152697906249904
mp-8,Re,0.003587022499999
mp-30349,Li2AgPb,-0.265067092083328
mp-865141,Lu4Ni13C4,-0.36019107507936304
mp-989625,SrWN3,-0.826510407249999
mp-17972,Zn2Hg2OF6,-2.038081691363638
mp-755463,Li3SbS3,-1.132929824642856
mp-17971,Rb2Li14Pr3O14,-2.25488288111111
mp-9781,K3SbS4,-1.0566366803125
mp-18656,GdGaO3,-3.0777339375
mp-27513,Sc7Cl10,-1.892506550588236
mp-11514,NbPt2,-0.748979196666667
mp-779147,Ho2P4O13,-3.147728031635337
mp-971919,ZnSn3,0.112768416249998
mp-752474,NbOF2,-2.98614324875
mp-37692,Li3RuO4,-1.9401401275
mp-4524,ZnGeP2,-0.275104891488094
mp-977386,LiLu2Tc,-0.082232834999999
mp-777553,LiFeF4,-2.745930910833332
mp-740740,Na2ZnP(H5O4)3,-1.576545708343596
mp-505312,Sr2FeCuSO3,-2.1175037396875
mp-768042,Na2FePCO7,-2.238002729783456
mp-35751,Zn(CN)2,0.12189339200000102
mp-758925,Na6Zn3As4H6O19,-1.794677381073048
mp-9897,Te3As2,0.007894957999999001
mp-557346,ZnS,-0.9622990758506941
mp-705001,LiCrP2O7,-2.624399683192641
mp-30714,Tm2Zn17,-0.252925520263159
mp-6233,NaSr3RuO6,-2.536848641943573
mp-542734,Rh2O3,-1.067203993999999
mp-772672,Sm2V2O7,-3.100962225454545
mp-2211,V3Pt,-0.427115099999999
mp-980196,YbTm3,0.053119578749999
mp-20901,NiSe2,-0.319800996041666
mp-542103,TbRh3C,-0.49176561033333205
mp-756648,LiNdO2,-3.125345656458332
mp-18648,Zr2Ni12P7,-0.7375639301190471
mp-18010,Ta2Pd3Se8,-0.7112176590128191
mp-772036,YTa7O19,-3.412611482271605
mp-6741,NaLa(PO3)4,-2.9184079093028172
mp-975641,Pr3Cd,-0.125826743749996
mp-36539,KBiSe2,-0.906039471734375
mp-569273,Mg44Ir7,-0.18718242813725602
mp-768570,Sr2CaI6,-1.850722338333333
mp-780853,LiFe3P3(HO6)2,-2.249249006893424
mp-978089,Pr2IrAu,-0.6379835933333321
mp-686588,RbNa10Al11Si13O48,-3.061202826762567
mp-865972,KTm2Cu3Se5,-1.317912484451706
mp-777449,Li4V5SnO12,-2.337928226287879
mp-1013585,Sr3BiSb,-0.6675142980000001
mp-976971,NaPd3,0.00025291500000400004
mp-753802,Sc2Ti2O7,-3.72757864742424
mp-849461,Na3MnO3,-1.7275870892241372
mp-2370,PrNi5,-0.25854633194444504
mp-5558,NaReO4,-2.266176710646551
mp-23723,K2CaH2S2O9,-2.235975780125
mp-19358,SmMn2O5,-2.628535253545252
mp-31249,La2Te4O11,-2.303930176274511
mp-781012,Na4Fe6O13,-1.503936997196402
mp-771112,Li2Mn3NiO8,-1.950653339675697
mp-1019808,KBe2B3O7,-2.897050703057692
mp-16061,Sr6Sb6S17,-1.33693586215517
mp-681439,LiZr2(PO4)3,-3.155012457903438
mp-763934,Mn3OF5,-2.746689417088123
mp-3263,USO,-2.780894070833336
mp-978515,SmYAl2,-0.426906162499999
mp-771365,Li24Ti5Cr7O36,-2.542436684120371
mp-812,Ho2O3,-4.027559444749998
mp-12378,LaSnRh,-0.890518748888887
mp-569508,Pr6Cd4Pd13,-0.7221449199999971
mp-510624,SrFeO3,-2.222982896999998
mp-690490,TiVO4,-2.9580379530555563
mp-752891,LiTi3O6,-3.284229924333333
mp-672679,Y4InIr,-0.55437699236111
mp-555827,Sr2Cu(BiO3)2,-2.040110309090909
mp-3465,LaB2Rh3,-0.657990270555555
mp-560217,K2Al2B2O7,-2.991123102910255
mp-30520,Tl2S5,-0.498485183452379
mp-12921,PrPIr,-1.269222546547619
mp-11239,ZrAg,-0.128847814999996
mp-770360,Li2AlVO4,-2.699032545833333
mp-555276,Sm2US5,-2.082370308124998
mp-779712,Ti17(NO4)6,-3.053636043758866
mp-13674,NaGeAu3,-0.266376418249996
mp-30846,Sn3Pt2,-0.520766143999998
mp-973968,KNaO3,-0.496376838725861
mp-2305,MoC,-0.160418414999998
mp-23499,K2SnCl6,-1.851916668833332
mp-11927,Pr2AlCo2,-0.17718613938126201
mp-27369,RbGeCl3,-1.691380211499999
mp-643067,Mg3Sn,-0.08914980999999901
mp-16036,Tb2TeO2,-3.3274110779999972
mp-19850,MnCo2Ge,-0.24963864073275902
mp-769928,Li4NbV3O8,-2.450287233958334
mp-9509,K2PAuS4,-1.010385426142856
mp-13743,K3GaO3,-1.887288735607144
mp-2665,PrRu2,-0.092449562222223
mp-768599,LiCuCSO7,-1.6676250568939381
mp-754381,Zr3N4,-1.809822919285713
mp-974425,Re3Si,0.164873838124997
mp-676074,Na2ThF6,-3.8046154366666682
mp-5057,Nd(SiAu)2,-0.585883005500002
mp-8719,K2MnTe2,-1.100206443396552
mp-570583,P4N3Cl11,-1.02336239547619
mp-22978,Rb2MnCl4,-1.954087174704433
mp-568375,La2Rh7,-0.45348660972222105
mp-28037,Mo2SBr2,-1.010590758166664
mp-11499,YMg2,-0.051695309166666
mp-652046,Re3S4Br,-0.884527891874999
mp-30532,Tl2ZnI4,-0.8696858452380951
mp-674972,Rb6Pb5Cl16,-1.86888093
mp-30776,PrMg12,-0.009906210897435
mp-8678,NaAlPO4F,-3.083286763252771
mp-12368,SbS2NF6,-1.8277700440000002
mp-754246,TiSnO3,-2.754611473666665
mp-28410,ThP7,-0.43145827785713503
mp-973815,Pa3Ta,0.19423288500000502
mp-624000,Re(Te4Cl3)2,-0.5325663015555551
mp-684104,LiSb2P5O16,-2.430624879439483
mp-17366,Ho2SiSO4,-3.452076566249998
mp-903,ZrCr2,0.16898737833333102
mp-3335,Sm2Ti2O7,-3.725298062424243
mp-771834,Tb3NbO7,-3.735065776590908
mp-673156,Li2NbP4O13,-2.670722167761906
mp-553936,K2Ag4Pd3(NO2)12,-0.7553662612481491
mp-569696,La(AlGa)2,-0.5552614609999971
mp-978964,Th3Mg,0.07393113875000301
mp-568295,Pr8(BCl)7,-1.401748467651512
mp-768320,LiLa5Ti8O24,-3.618475929342105
mp-556699,Na2PHO3,-2.155557859807354
mp-976029,Ho3Zr,0.08568460749999901
mp-864945,MnBe2Rh,-0.41455210198275805
mp-38280,LiTiO2,-2.979356947916666
mp-849748,NaMgP3(H4O5)2,-1.879302868709039
mp-976254,Li3Mg,-0.010507621249999
mp-674508,RbPbF3,-2.7787236245000013
mp-13941,Sr2YbReO6,-2.915716727
mp-1019109,SmGeRu,-0.6855949733333351
mp-760396,TaAlO4,-3.345023961222222
mp-771343,Na3TlPCO7,-2.115281233239548
mp-14983,Si4P4Ru,-0.401065874100529
mp-20289,NaInS2,-1.090385381406248
mp-764977,Li2FeOF3,-2.639949047380952
mp-12584,Th2CrN3,-1.5985465060416622
mp-559103,Na7Y2P7O24,-2.878189060053878
mp-582444,Os(SeCl6)2,-0.40278331070833
mp-16432,Sr3(BO3)2,-3.24476437712121
mp-22282,LaIn2,-0.6733555133333341
mp-684493,LiSn2P3O10,-2.426425320610119
mp-23797,LiH6ClO7,-1.167001209055555
mp-4736,NdP5O14,-2.823267528035713
mp-567430,TlCoCl3,-0.9996334613333341
mp-19290,Mn2As2O7,-1.442525594623831
mp-585963,Rb7Th2(P2Se7)3,-1.093486865821552
mp-706525,NaAl3P2(HO3)4,-2.5991292135529562
mp-623108,Eu4Ir,-0.321069992999997
mp-631329,KMoRu2,1.424262563416665
mp-560004,Na2USiO6,-3.06451681890086
mp-761190,LiCu(PO3)3,-2.345475127304422
mp-24447,FeCoH18(NCl)6,-0.736306239062499
mp-676937,Ta8Pb6O25,-2.850816496247865
mp-27451,Tl3PbBr5,-1.191217744166665
mp-541857,GaP(H2O3)2,-1.913325822574404
mp-560663,Rb(CoS)2,-0.804153500499998
mp-774337,Li3Ti2FeO6,-2.703509463888889
mp-1001112,Na2H3CO6,-1.253161238771551
mp-21122,NdSb2Pd,-0.9447041556249991
mp-556843,NdAsO4,-2.7786037754166673
mp-30598,SrCuSn2,-0.42304246500000003
mp-27273,Ti9O17,-3.448527105384616
mp-7642,K2AgAs,-0.384078838416666
mp-704459,Na2Cr2O7,-1.852307996387146
mp-779070,Li2NiP2O7,-2.50775682424603
mp-555546,MgAs2(XeF5)4,-1.872426558888888
mp-773160,LiCrCSO7,-2.060025409621211
mp-961679,TaAlPt,-0.014324575777777002
mp-510011,La3CuGeSe7,-1.688348896367188
mp-758635,UH12S2O15,-1.7319332428333332
mp-631267,TaFeSb,0.464764864222222
mp-1001828,WN,0.09354010479166401
mp-33018,Rb3Sb,-0.38217980562499904
mp-981934,LaBeO3,-2.919646555000001
mp-20364,K3Rh(NO2)6,0.747139625375
mp-773891,LiCuPO4,-2.183715850425169
mp-541689,Na7In3Se8,-1.119107745694445
mp-505137,Nb3SiTe6,-0.7283054157499991
mp-10165,KAlTe2,-0.9589357946875011
mp-7064,Er2Si2O7,-3.700666997727278
mp-7363,Sr(ZnGe)2,-0.40939314600000004
mp-15307,ErSi3Rh5,-0.959593578148147
mp-849512,Na7V2O6,-1.769251600977011
mp-30794,Na15Sn4,-0.21150782868421
mp-14175,K3NbO8,-1.685816469312499
mp-772590,Li6V2B4SO16,-2.512980432902299
mp-849423,Li2MnVP2(HO5)2,-2.403729465910189
mp-10519,Cu2SnS3,-0.40985730807291704
mp-774922,Ti3TeO8,-2.926663778055555
mp-20424,MgCo3C,0.064963105000001
mp-755255,Cu3OF5,-1.5964338016666662
mp-649084,Sr2B8Ru7,-0.42372459500000004
mp-559160,NaSmSe2O7,-2.074237839869706
mp-978263,MgU,0.263791535000002
mp-754992,LuTlO2,-2.779798667500002
mp-33526,LiBiS2,-0.9727562208333331
mp-551675,Li3UO4,-2.948547609999998
mp-777680,Li2VF5,-3.154316484270833
mp-30807,ZrNi4Sn,-0.37461054249999803
mp-569398,La4Al5Br2,-0.9739260990909051
mp-2318,Nb2C,-0.526015103333333
mp-560445,SrEr2O4,-3.7788546217857153
mp-976373,K3Y,0.563028944833334
mp-766173,Sr(RhO2)2,-1.7513486389285582
mp-555229,H5CNO2,-0.914127954027778
mp-1020797,Y(PO3)3,-3.005390171840647
mp-766059,Na3Mn8O16,-1.8760705967624531
mp-622636,TmInCu2,-0.375569032500003
mp-558893,SbCSF11,-2.196961363392856
mp-32027,Li2Mn3(P2O7)2,-2.604979450610052
mp-409,NaS,-1.001984056406249
mp-698457,NaLiH4C2O5,-1.509457439400971
mp-686040,MgU2O6,-3.5362289355555543
mp-759416,Li3Sb(PO4)2,-2.494337993282312
mp-504801,ErHO2,-3.025769705312499
mp-5692,TbRhO3,-2.575770184833334
mp-2436,EuZn5,-0.25087550083333204
mp-29144,KTe2F9,-2.624232532548604
mp-1012835,SmCu(WO4)2,-2.359475323333333
mp-19788,Tb2Ge2Ru,-0.7944976546666651
mp-758891,Li3CuPO5,-2.298002246964286
mp-569246,Tl2HgGeTe4,-0.400060978854168
mp-21330,EuAgAs,-0.7703992797222251
mp-553890,CuSb2H12(O3F4)2,-1.732292058620689
mp-569952,K2CuCl3,-1.626013471249999
mp-31022,Hf2Si4Ru3,-0.84989774837964
mp-676663,ZnSnSb2,0.039650437083333004
mp-978851,SrAsO3,-2.2736955725
mp-4681,NaNbO3,-2.842414990275862
mp-542680,Na3In2Au,-0.22486557416187802
mp-554218,Ti4P6PbO24,-2.975456780605443
mp-504106,LiTiPO4,-2.642901836258502
mp-1083,NpB2,-0.5809013012499991
mp-636264,La(CuSn)2,-0.5056304490000001
mp-9348,KRb2ScF6,-3.5664676697249993
mp-510580,NdNiSnH,-0.640351484687498
mp-4086,La2Sn2O7,-3.0172737977272712
mp-1673,Tb5Ge4,-0.9935722341666661
mp-568340,Ho5NiPb3,-0.5115432388888821
mp-1799,TaCo2,-0.19736794577778002
mp-17123,Si2Os,-0.49835368250000006
mp-542817,UPt,-0.8502938387500051
mp-557259,MoF6,-2.636013854642857
mp-557941,K4AsH5S3O16,-1.8935357660431031
mp-2589,MgO2,-2.010695488333333
mp-975052,Rb3Al,0.353391119374999
mp-15960,Li5AlO4,-2.496202980041666
mp-756288,Li3Cu4SnO8,-1.501847707812499
mp-642273,U6Fe16Si7C,-0.39972648649999704
mp-21085,PuPd3,-0.48326001218749703
mp-540850,TlPF6,-2.654474766622025
mp-631382,YMgCu,0.5587431983333331
mp-690534,K3FeF3,-1.948749875249999
mp-764058,V4O7F5,-2.5490125925
mp-778924,ZnSeO4,-1.356453151223957
mp-3245,SnP7Au3,-0.13375594962121
mp-755457,Li2Fe2S3,-0.8426041113095231
mp-21065,SiP2,-0.12710044781746002
mp-631312,InP2Pb,0.496235549672611
mp-36529,Na3(WO3)10,-2.193637999165997
mp-862974,PmZnAu2,-0.6304956056249931
mp-775203,Li8ScFe7(SiO3)16,-2.828154589645835
mp-574339,Y2Ni7,-0.37176889166666505
mp-17464,SrGeO3,-2.743115335333333
mp-1009545,PaN,-1.827745474374992
mp-567474,Li2CrCl4,-1.6526891154285681
mp-677081,SrLa11Mg3Ga9O34,-3.098566944956897
mp-663,NdGe,-0.9472384237499971
mp-765753,NaMnO4,-1.379623696135058
mp-707938,MgH18C4SN8O9,-1.00313108847561
mp-771240,La2P4O13,-3.163611095187971
mp-12985,PrCo2B2C,-0.326398787499999
mp-1508,LaS2,-2.142144764791664
mp-721330,Rb14Na3Al17Si31O96,-3.110719303907689
mp-643905,Sr(H2N)2,-0.651188023571428
mp-760781,Li2AgF4,-2.331253538452383
mp-28420,SrH4O3,-1.798464281874999
mp-631557,Sn2BSe,0.8336005475580911
mp-998603,RbPbBr3,-1.612416807500002
mp-27698,Y6UO12,-3.955267867894736
mp-2339,Ti3Pt,-0.684364118749999
mp-7305,SmZrF7,-4.195535170555557
mp-758861,Li3AgF4,-2.581184765
mp-510719,SrGaH4,-0.26097251666666604
mp-31317,La3PbI3,-1.30978687285714
mp-1009539,OsC,1.391818666249999
mp-555487,SnO2,-2.096102013611111
mp-4336,LaPPd,-1.308581693214286
mp-30619,Zr3Co,-0.14822728500000001
mp-559768,La2Ti2O7,-3.783552335151515
mp-21249,YMnSi,-0.6427959998275881
mp-1009885,ZrN,-1.6535506018750041
mp-677732,NdTi2CdO6F,-3.16231406628788
mp-758371,YbAlO3,-3.51754615225
mp-30778,Mg5Rh2,-0.360986107857143
mp-17830,Rb3Ge4Au,-0.26604828406250003
mp-769201,LiCuHCO4,-1.562202855989583
mp-975887,PrNd3,0.022200343958338
mp-764414,K2Li2NiO4,-1.448288656518518
mp-14691,NaEr(PO3)4,-2.904327990969484
mp-765316,Li3Ni2(CO3)4,-1.7831531490476191
mp-13993,Ti3NiS6,-1.4939510014999962
mp-26649,Li2SnP2O7,-2.552136414662698
mp-1020361,MgSiO3,-3.220523215249999
mp-631339,Na2LiTa,1.233161440890803
mp-706444,Zn3P2(H2O3)4,-1.813411270971428
mp-17959,Nd2SiTeO4,-3.265848502708333
mp-20554,InAgSe2,-0.533225844531248
mp-20109,Th2NiB10,-0.5974298585897461
mp-19817,Y3InC,-0.50450668833333
mp-753737,Li3CuS2,-1.168626543333333
mp-542565,Nd3Sb5Pd6,-0.883245043035713
mp-757658,LiTi(PO3)4,-2.674085536263226
mp-22786,ThNiSn,-0.6893862349999951
mp-989627,SrTcN3,-0.584453189749999
mp-16921,KNa4GeAs3,-0.39157129919636
mp-774276,Li2Cr3SnO8,-2.268205161011905
mp-558597,NaLiY2F8,-4.023631057222222
mp-757220,LuH6(ClO5)3,-1.101402985366667
mp-2215,ThHg2,-0.350545596666667
mp-560198,ZnTe6O13,-1.514598883249999
mp-973936,NiI,-0.053076927499999
mp-569974,Nd(NiP)2,-0.9864708273571421
mp-557330,Sr2B5ClO9,-3.072055006960785
mp-22963,K2TeBr6,-1.39301875735185
mp-768214,Li3FeS3,-1.131273414285714
mp-768360,Li3(FeS2)2,-0.9629907763888881
mp-22233,Zr4Co4Ge7,-0.577078595
mp-30565,Th7Co3,-0.152962933999992
mp-1620,Si2W,-0.299889533333332
mp-10624,USbRh,-0.577150163333327
mp-14791,Ge2Te5As2,-0.267630935370369
mp-997588,La8Al7BO24,-3.577816958979166
mp-20496,Ga2PbO4,-2.070018908571427
mp-779249,Gd3TaO7,-3.784980427030304
mp-17048,Rb2WS4,-1.2821507953571412
mp-6119,Na2Nd2Ti3O10,-3.359358077515213
mp-657344,Na12B26O45,-2.743098109998613
mp-975384,RbBiO3,-1.447628566500001
mp-1020014,Li3B11O18,-2.817591519401042
mp-568501,SrCdBi2,-0.445717193749998
mp-779462,Sb2(SeO4)3,-1.257738118501838
mp-1367,Mg2Si,-0.10859876333333301
mp-778744,Li2MnNi(PO4)2,-2.494743772777387
mp-771031,Lu2TiO5,-3.9183673255208333
mp-976221,K3Sm,0.5593364752499991
mp-14019,NiB,-0.240703583749999
mp-9843,Sr3(AlP2)2,-1.163182541878307
mp-768990,Li7NbS6,-1.37640203095238
mp-863740,Pm2IrRu,-0.455494499999999
mp-12766,Mg13Al14,0.078594100555555
mp-639558,SiO2,-3.250543761309524
mp-782654,Li5Mn6(BO3)6,-2.475734897978653
mp-2614,HfAl3,-0.42420176750000105
mp-773252,Li2(NiO2)3,-1.261052868787879
mp-754597,LuTlO3,-2.528349047500002
mp-20828,Pt3Pb,-0.12126796249999901
mp-779662,Zr5Sn3O,-1.115564977222222
mp-571235,ZrI4,-1.227871009333331
mp-706225,Sr3LaMn2(WO6)2,-2.813640635793103
mp-863654,Pm2CdSi,-0.448319074999997
mp-1157,TaNi2,-0.30562951244444503
mp-559748,NdGaGe2O7,-2.5918360020454543
mp-21895,Na15Pb4,-0.209552232894736
mp-971960,Zn3Os,0.037268560000004
mp-2716,TiNi,-0.371091617222219
mp-626197,Sr(H8O5)2,-1.341588831851852
mp-541667,Nb(SeBr)2,-1.163817678937499
mp-1009014,LiCuO,-1.031819572777777
mp-541365,LiEuH3,-0.622832675583332
mp-776509,Sr2Ti6N2O11,-3.172124203095238
mp-762019,LiV(CO3)2,-2.141062827333333
mp-560901,PdSCl,-0.48019835718749904
mp-865890,Li2CaIn,-0.35424408083333203
mp-11713,SiC,-0.30585507849999904
mp-28218,TlCdCl3,-1.434297047166665
mp-3194,Tb2Al3Si2,-0.5871108628571421
mp-22290,Mn6Si7Ni16,-0.5374249038585031
mp-15624,Sr2Sb,-0.918589409999997
mp-850981,V6O5F19,-2.734126630333334
mp-12724,SrZn,-0.18493558000000102
mp-4075,TbZrSb,-0.9347930216666681
mp-21847,KMnAs,-0.23700513756034502
mp-765142,LiCoSiO4,-2.287009826190477
mp-976775,NaMgO3,-1.386468496275862
mp-6198,SrGa2(SiO4)2,-2.971813028269231
mp-754031,YBrO,-3.303779935
mp-973557,FeAu3,0.15367437250000002
mp-561154,La(BO2)3,-3.17992787
mp-998745,TlZnF3,-2.328041165000002
mp-561181,SiO2,-3.25178817297619
mp-6969,Sc(CuSi)2,-0.5232488150000001
mp-769397,MgSO3,-2.2831668565
mp-763433,Li2MnF4,-3.004010042085385