material_id,formula,formation_energy
mp-780880,Rb2CoO3,-1.4026544175
mp-722832,PH3NF5,-2.042307195339285
mp-12903,YAgTe2,-1.125885941249998
mp-29631,Li11Ge6,-0.31728520686274403
mp-3708,Tl(FeTe)3,-0.30991820119047603
mp-22332,TaInS2,-1.104730417249999
mp-972410,TmLuPd2,-0.990671981666665
mp-13252,SnB4O7,-2.6146258118055563
mp-328,Zr2Ni,-0.32306496833333403
mp-759560,LiTi6O12,-3.360936412807018
mp-775523,Li3Fe2(PO4)3,-2.4626752199464272
mp-13072,PrGe3Rh,-0.700915795333333
mp-570290,MnTlCl3,-1.410830244252875
mp-13916,LiCaSi2,-0.373560264583332
mp-767432,Sr16V8O31,-2.975661722272724
mp-780203,Li9(FeO4)2,-1.922352728947368
mp-540433,Li2Fe3(P2O7)2,-2.442718145010352
mp-530399,LiAl5O8,-3.350604872559511
mp-764651,LiFe2(BO3)2,-2.266894139469697
mp-755924,Y2CuO4,-3.059798596428571
mp-505077,NaH9O5,-1.336315675341955
mp-541373,KTa3CuO9,-2.904744851196429
mp-559770,Nd4Ga2O9,-3.327851149166667
mp-769462,Li2Nb6NiO18,-2.6724596295061733
mp-662789,Te3As2(SF4)3,-1.869834825124999
mp-759382,Li2Ti7Nb6O30,-3.169218702888888
mp-865911,YbPmHg2,-0.560352269375002
mp-569597,Np(FeSi)2,-0.28109418975
mp-7568,ThSb2,-0.923205481666665
mp-7523,Th2TeN2,-2.107963813499998
mp-35035,KCN,-0.373543050416666
mp-542634,Ta2Te3,-0.606275635933332
mp-14333,TaAlO4,-3.400570372055554
mp-675336,Pr10US16,-2.2810875237191333
mp-10785,RbLuSe2,-1.9347971397135422
mp-18895,KCoO2,-1.4210918418125
mp-753774,KTmO2,-3.158537831812501
mp-20493,Mg(InS2)2,-1.100294376547618
mp-12183,KB5O8,-2.842433144505952
mp-867166,PuO2,-3.388036827916662
mp-767137,Li3Sb17S27,-0.632199356648934
mp-689929,LiV(PO4)2,-2.497222284384921
mp-626287,Sr(H8O5)2,-1.33863161574074
mp-569310,Sr(POs)2,-0.750524373190478
mp-13694,PrCuO2,-2.581216355416654
mp-6961,Sr(SbPd)2,-0.831337971999999
mp-27227,LiAg3O2,-0.8048942663888881
mp-26409,LiTi(PO3)4,-2.73653606834656
mp-19384,Ni(AsO3)2,-1.600634289444444
mp-2552,TeO3,-1.321559591666666
mp-976838,Ni3Au,0.10469737500000001
mp-677288,Mg5AlH21O17,-1.768713978323863
mp-560016,NaNb2PO8,-2.903408520501847
mp-31110,Sm3GaO6,-3.503155579249986
mp-5857,MgAl2O4,-3.271102225714285
mp-13063,Tb2O3,-3.942971762416667
mp-862755,PrCd3,-0.346884070416663
mp-540924,NbTeI3,-0.7703017873333311
mp-641534,Nd3CuSiSe7,-1.632453711158853
mp-770341,Li4AlCr3O8,-2.567891970833333
mp-40478,NaDy3Ti2(SbO7)2,-3.147096488092998
mp-27791,SrBe3O4,-3.112535916875
mp-583184,Tl3Ag3(AsS3)2,-0.43435470642857205
mp-973662,Lu2ZnCu,-0.322767533333335
mp-27514,NaFeCl4,-1.530814481896551
mp-1980,YbNi2,-0.490237591666667
mp-865744,YbCdPd2,-0.7998905887499951
mp-763174,Li2VO2F,-2.619751759444444
mp-662588,SbRu2C6Cl7O6,-1.16032288931818
mp-779587,TiPO4,-2.951555876607142
mp-10381,K2CuSb,-0.405258609374999
mp-127,Na,0.015772269999999002
mp-1019774,K2CeAl(SiO3)4,-3.260349144725
mp-680085,ZnS,-0.9622368147179371
mp-10181,LiSiNi2,-0.48706503333333206
mp-2724,TbSb,-1.38852095
mp-27609,U3Fe2Si7,-0.40511394999999906
mp-571557,V6Ga5,-0.257915693636363
mp-13073,PrNiGe3,-0.592177524333331
mp-673029,LiSn2P5O16,-2.44570885048115
mp-675223,La4Ag2Se7,-1.753367848405428
mp-767727,LiMn2OF5,-2.659198050466155
mp-720299,ZrCuH8(O2F3)2,-2.0638353135
mp-1013874,NaTi3P3O13,-2.989070170015394
mp-694965,Li3(NiO2)8,-1.067726349259259
mp-975913,PrNbO3,-2.9259439773333322
mp-667283,Sr5Re3ClO15,-2.774143396458334
mp-778246,Li2Mn2(PO4)3,-2.455321072181964
mp-754839,SnBiO4,-1.694535004166666
mp-753299,LiAgF2,-2.060694364791667
mp-18299,UF3,-3.992617684583336
mp-768764,Li2BiBO5,-2.069399835092593
mp-21456,SmMgIn,-0.395674705555554
mp-623038,Nb5As3,-0.5612512189062511
mp-983429,PmDyRu2,-0.216377239791664
mp-975144,RbZn4As3,-0.29691188375
mp-559982,Na2AlZnF7,-3.227245769204545
mp-27366,KNiCl3,-1.469011672916667
mp-764932,Li3Fe4(BO3)4,-2.29968509137681
mp-30247,Mg(HO)2,-2.002504449499994
mp-2203,YB6,-0.46235378642857305
mp-780148,Li3Mn2P4HO14,-2.524764444611811
mp-13374,LaTmO3,-3.9616170855000012
mp-753995,YTmO3,-3.933321822500001
mp-11503,MnZn,0.005056682442527
mp-31837,LiFeP2O7,-2.481926600238094
mp-10182,LiZnP,-0.655819149880952
mp-510486,Ta3Al2CoC,-0.5666687724285701
mp-760582,Li2AgF3,-2.4059618055555543
mp-40519,Na3Sr7Ta3Ti7O30,-3.396741300589425
mp-763968,Li4V3Ni3(TeO8)2,-1.9648777252380951
mp-771687,Li5Fe5O12,-1.674076175303029
mp-32389,LiNi2P3O11,-2.148529806897759
mp-22493,YInAu2,-0.781283282499998
mp-774384,Fe10O11F9,-1.947594336
mp-1018149,ScCu2,-0.23641582500000102
mp-15728,MgAg(PO3)3,-2.540037104774659
mp-9588,LiP,-0.616667199821428
mp-698669,Nd2(MoO4)3,-2.613427139999998
mp-862716,LiAg3,-0.128797530416665
mp-542791,ZrNCl,-2.108393888750001
mp-29068,Hf5FeTe3,-0.7152297805555521
mp-1666,Th2S5,-1.9893850255803571
mp-782638,Fe3(O2F)2,-1.786299572222221
mp-764125,Li4Mn2(PO4)3,-2.583221307529714
mp-18440,Rb7NbAs4,-0.40489210937500003
mp-623066,GaPt3,-0.43938510687499804
mp-773363,Li4Mn3WO8,-2.130965126070403
mp-695383,K2HS2NO6,-1.774226852145833
mp-973865,PaAl3,-0.24641417249999903
mp-569313,Mg3Si8Ir3,-0.42394052678571303
mp-1014226,Zr3ZnN,-1.030142710750001
mp-753192,Yb4Sb2O,-1.552057626964288
mp-624234,TePb2O5,-1.566924390833333
mp-27587,Li8Pb3,-0.327892539696969
mp-162,Yb,0.040395814999996005
mp-631270,ZnFePb,0.7816588900000011
mp-5848,ErZrSb,-0.8926948944444411
mp-561434,Rb2Sn2Hg3S8,-0.792442982833334
mp-720643,K2ZrSi3(HO5)2,-2.902319666222221
mp-998560,InSnCl3,-1.282235282333333
mp-34730,Zn(FeO2)2,-1.681049182857143
mp-2350,LaS,-2.43041202890625
mp-761932,Fe3Co3(TeO8)2,-1.3253481163888892
mp-626229,H4SO5,-1.451702741
mp-975655,PrNiGe2,-0.7405371191666651
mp-582175,La4Si4I3,-1.160076290454549
mp-28796,Sr5(AuO4)2,-2.343511762000006
mp-580154,GdMgAu,-0.669280926111105
mp-861956,LiPm2Ir,-0.5049128554166621
mp-974583,NdSmIr2,-0.700093819089282
mp-743906,La5MnRe3O16,-3.014136212417241
mp-865115,NaNdHg2,-0.442352603125002
mp-540878,La3Re2O9,-3.094035246428573
mp-705842,Fe9Cu3O16,-1.419058577857142
mp-19023,YbCrO4,-2.864950179166667
mp-705844,Mo5(O4F)3,-2.091100529749999
mp-30752,La2Mg17,-0.034311642631579
mp-976931,LuAlAg2,-0.34279282916666803
mp-762289,Li2P2WO8,-2.5634907219963363
mp-3944,ZrAlNi2,-0.5980511674999931
mp-5640,ErSnAu,-0.8443013916666671
mp-558642,Sr3Bi(ClO)3,-2.7406748267500003
mp-13236,Ho5Si3,-0.7807739637500001
mp-647900,TlAs3PbS6,-0.519664487121211
mp-571109,Li2Nd2Si3,-0.5847617323809501
mp-776424,Na2LiCuP2O7,-2.349577459836743
mp-18814,MnCO3,-2.012984636586208
mp-555322,Eu2SiCl2O3,-3.1570140675
mp-763431,LiMn5O3F5,-2.48618369092775
mp-540011,Li2Ni(PO3)5,-2.43748463434265
mp-977548,Nd2MgGe2,-0.758022645999999
mp-643629,Sr2YCu3(PbO4)2,-2.061446950937499
mp-768083,Li5La3Nb14O42,-3.044120530026044
mp-971906,TmBi3,-0.37281708625000204
mp-772272,Li2Cr2O7,-1.8047218365151512
mp-961695,LaCoTe,-0.868410610555555
mp-28754,Nb3GeTe6,-0.720635351249998
mp-545482,PdSeO3,-1.032893985468749
mp-560708,SiO2,-3.257480649166666
mp-778250,Li3FeF6,-2.9413813527499992
mp-770733,Li2AlFeO4,-2.4878525792708333
mp-555770,RbH4SNO4,-1.456424788409092
mp-22052,Zn(InS2)2,-0.792174898239792
mp-773596,Na7(CuO3)2,-1.378899526977011
mp-11947,LiAlAg2,-0.23783073416666503
mp-7352,MgCuP,-0.419133639047621
mp-849471,Li4Mn3Cr2Fe3O16,-1.9867686366830872
mp-561012,Sr3Cu3(PO4)4,-2.629317884560439
mp-5288,Y(FeSi)2,-0.639976592
mp-706912,K2HS2NO6,-1.768738460895833
mp-774421,Li3Fe8(BO3)8,-2.249645584728682
mp-4081,TaCu3Se4,-0.5959828879479191
mp-773785,K2TeO4,-1.789421294809523
mp-13981,KPO3,-2.6721746703785723
mp-975579,NdBeO3,-2.870313715499999
mp-974732,Rb3Y,0.642306796875
mp-558285,GaBiO3,-1.9634968209999992
mp-570998,NaLi2N,-0.27599625057111904
mp-772755,Li3CuPCO7,-2.198118876510989
mp-569440,TmInAg2,-0.39610014249999903
mp-1401,ZrZn2,-0.36867421666666605
mp-7554,LiMgSnAu,-0.40073042833333206
mp-1009218,MoC,0.42430560312499904
mp-7070,Mn3PtN,-0.38082256775862006
mp-755947,Li3(CrS2)4,-1.147732210666666
mp-978543,SmErTl2,-0.338921110416669
mp-706279,Li2ZrFe(PO4)3,-2.630268293057645
mp-10778,RbPrSe2,-1.955156013463541
mp-777457,Li2FeF4,-2.851039251309523
mp-18243,K2Si3SnO9,-2.8678543406333343
mp-767223,LiVCrP2(O4F)2,-2.725326996841269
mp-673845,NbO2F,-3.13760946875
mp-40201,Na8Be3Si9(ClO12)2,-2.9094540064355323
mp-756705,YAlO3,-3.6706364266666682
mp-773491,RbH2SNO3,-1.452311322656249
mp-778768,Li2Co3NiO8,-1.382155322619047
mp-79,Zn,0.0
mp-631880,Na2SrFe,0.666450399310345
mp-776047,Mn3Cr2Ni(PO4)6,-2.347498685323618
mp-1020015,Li2B3PO8,-2.792678821254252
mp-989520,Rb2NaBiCl6,-1.9298860416379302
mp-753131,Li3Ti4O8,-3.043592324888889
mp-2291,Si2Ni,-0.344433906666665
mp-4534,NaCO2,-1.8766211428448272
mp-580287,Zr3Cu,0.032930704999999005
mp-19196,La4Co3O10,-2.728229712352941
mp-756565,Li2Ti7O15,-3.297761216458334
mp-864837,Nd2CuRu,-0.17880408390624303
mp-5517,Tb(NiP)2,-1.016273493190478
mp-767071,Li2Co(CO3)2,-1.9085480426515162
mp-571664,Zr2Rh,-0.59794108666667
mp-776470,Hf3N4,-1.9739463853571442
mp-550908,SrHfO3,-3.801078973999998
mp-23634,KSbClF3,-2.572567188708333
mp-1200,TbCo5,-0.08300625277777801
mp-1406,MnTe,-0.5502373072413811
mp-19801,EuRhO3,-2.205840328500002
mp-569810,Sr2BIN2,-1.4835856786111101
mp-30767,Li7Sn2,-0.37388265648148
mp-554930,Nb2AgPS10,-0.8964081025935381
mp-542814,SiO2,-3.265347307499999
mp-861900,LiGaAu2,-0.443066271666666
mp-976784,NiAu3,0.088920869999995
mp-680576,Ti2Se,-0.9813986855034741
mp-850746,Fe4O3F5,-2.14660980875
mp-3042,K2SiF6,-3.425675350499996
mp-571335,ThBi2,-0.5219068866666751
mp-675506,Nb6(Pb2O5)5,-2.257840133536585
mp-6064,Sr3MgPtO6,-2.623797067727272
mp-611623,U(CoP)2,-0.898737850190474
mp-9804,KHo(CO3)2,-2.574629427225001
mp-2794,Fe5C2,0.05985946571428501
mp-28496,K2UCl5,-2.233121899375001
mp-769028,Si3Sb2O9,-2.7162385732142873
mp-772920,Li8Ti2O7,-2.42939052240196
mp-752942,LiTi2O4,-3.156494141428571
mp-8892,LiInF4,-2.933849961111111
mp-733817,Mg16Si8HO32,-3.089519253881579
mp-2089,ZrTe3,-0.8232634687500031
mp-772863,Na2Ge2O5,-2.122382791139846
mp-768585,HoTa3O9,-3.517398720153846
mp-28773,Na4Ga2S5,-1.232112122319748
mp-362,Ni3S2,-0.5714508529999991
mp-556496,Sr10Al4Si6O,-0.6413619607142851
mp-772305,Y2Bi2O7,-2.529994157272726
mp-554645,K3Sb2N2O6F7,-2.106287173837499
mp-30777,MgPt3,-0.5702773387499921
mp-30137,Gd3ReO8,-3.269572775416667
mp-928,HoIr2,-0.830710680000002
mp-759234,Li3CuF6,-2.606958706
mp-19187,Na2ZrCo(P2O7)2,-2.729934267787729
mp-18109,RbDy(SO4)2,-2.553862191805554
mp-849457,Li3Ni(SbO3)4,-1.937505494249999
mp-761710,LiFeCoO4,-1.56843485047619
mp-267,Te2Ru,-0.406118763333338
mp-640315,Y(Zn10Ru)2,-0.196025093043477
mp-561127,K2Ce(NO3)6,-1.382420655722223
mp-974739,Rb3Tl,0.06716093354166401
mp-555097,Tb3Si2Cl5O6,-3.231703675
mp-23453,Hg6Sb5Br7,-0.60877720472222
mp-603912,Nd2MoC2,-0.301903028499998
mp-558592,Sb8Br2O11,-1.6855623160714281
mp-585408,Li3Sn2(PO4)3,-2.505777215696428
mp-28686,Ni(H2N)2,-0.24146921746031902
mp-6783,NaLiSO4,-2.258071561506567
mp-555119,SrTaF7,-3.778625073037037
mp-17272,NbCuO3,-2.2995771384999992
mp-755664,Li2(TaS2)3,-1.524350781242421
mp-22206,TbCoSi,-0.6764156463888881
mp-2932,Y2Si4Mo3,-0.685602645555557
mp-22061,In(TeMo)3,-0.29588318714285805
mp-39010,MgCr2O4,-2.418838074285714
mp-24708,ZnH8SO8,-1.470385593472221
mp-976185,NaBeO3,-1.325980552275861
mp-14389,Na3AlP8O23,-2.686165786108023
mp-766006,In15SnO24,-1.993645727124996
mp-570696,Pr5Sn3,-0.671518957291665
mp-31499,Mg29Ir4,-0.16409588297979702
mp-7892,Mn2AlB2,-0.47041736883908103
mp-27373,SnClF,-1.746298670833333
mp-767365,SnP4O11,-2.439222466473214
mp-864834,NpSnRh2,-0.217914920937499
mp-571271,TmPt2,-1.210271618333337
mp-572510,K3AgO2,-1.177506311194443
mp-555410,ZnS,-0.961571241406249
mp-971857,Zn3C,1.040288750624999
mp-28562,RbAsSe2,-0.8514375496093761
mp-18921,NaCoO2,-1.557503675344833
mp-862767,TbMgCd2,-0.28371526541666403
mp-932,ScGa3,-0.5140333662500001
mp-10810,TiAgF6,-2.836437708124999
mp-7773,Na2AsAu,-0.596101208124999
mp-570597,La2GeI2,-1.445252525000001
mp-985591,Li6PS5Br,-1.306132808241757
mp-6000,La2Ti3(AgO5)2,-3.063526957254903
mp-11914,NaLa2IrO6,-2.701588549637931
mp-628588,Fe4Si2Sn7O16,-1.921594353620688
mp-767014,Na5(WO3)6,-2.152305394892985
mp-775073,Li4Cr3Fe3(SnO8)2,-2.074022028333333
mp-555716,Tm2Ru2O7,-2.610419896363638
mp-28424,K4P3,-0.503690436989795
mp-1009649,PrN,-1.188911605208332
mp-695074,KNa3Al4(SiO4)4,-3.143388482192426
mp-554199,RbSnIO6,-1.514796971944444
mp-557450,Na2PtO3,-1.491386842126436
mp-998781,TlNiO3,-0.734057827666668
mp-4577,Y3(AlNi3)2,-0.543428607272726
mp-707710,SrMgUH24C3O23,-1.711522149245282
mp-14125,Ho2(Ga3Co)3,-0.477458816607142
mp-676296,U(BiO2)4,-2.12140275
mp-30775,PrMg2,-0.082820253888887
mp-6376,KV(CuS2)2,-1.068431111531248
mp-600005,SiO2,-3.251669315416666
mp-30041,RbBiS2,-1.017452068125
mp-8655,SmSiRu,-0.8532271883333351
mp-8341,NaGeSbO5,-2.059616298297414
mp-560826,SiO2,-3.254994389722223
mp-556783,NaLiCO3,-2.165979774489145
mp-600125,HfInCu2,-0.161315811666666
mp-961718,TiAsRh,-0.42897138694444403
mp-862654,LaGaAu2,-0.6353538056250001
mp-3648,Zn2CuAu,-0.14467874999999703
mp-974658,Rb3Ac,0.47759471624999905
mp-12778,VOs,-0.33667420999999803
mp-697652,HfP2H4O9,-2.460893436674107
mp-774393,Li2MnFe(BO3)2,-2.418423052188696
mp-863403,LiNbP2O7,-2.625276852056276
mp-776772,Li4Ti2Cr3Sn3O16,-2.465153735535715
mp-582635,U6Co,-0.0030687889285770003
mp-775116,MnCr3(PO4)4,-2.525468930687604
mp-999542,MnFe3,0.051220863017242005
mp-1121,GaCo,-0.19560595499999903
mp-776061,Li4Ti3Mn3Nb2O16,-2.83549590704023
mp-696272,HgHNO4,-0.8757274641071431
mp-569561,TeCl4,-0.639768098499999
mp-850986,Li6Co6O5F11,-2.2546054225
mp-29374,KGaSb4,-0.34899427912499204
mp-504990,RbCeH2S2O9,-2.266334815
mp-19228,K2MnV4O12,-2.393148386443738
mp-27772,Nb3I8,-0.797843850000002
mp-647350,Rb5HfFe(MoO4)6,-2.21517102141892
mp-29172,SeF4,-1.7607326073125011
mp-11597,NdBPt3,-0.8671155033333341
mp-28151,Ho3Ni19B10,-0.43579276708333103
mp-756793,Li2Nb4ZnO12,-2.811698610877192
mp-23737,KMgH3,-0.34565612720000005
mp-24182,Rb2ZnH12(SeO7)2,-1.427161236280241
mp-974322,Ho3Mg,0.028138165000003
mp-555618,Na2MnF5,-2.930590704148707
mp-32,Ge,0.0
mp-22559,Pu(SiRu)2,-0.6062373617499971
mp-18625,KPSe6,-0.681722183556918
mp-28227,Ni11As8,-0.307935269605262
mp-684106,LiSbP2O7,-2.466037994556276
mp-760506,PNO,-1.413441790992064
mp-7108,Tm(SiPt)2,-0.9986962220000011
mp-772334,Li3Fe3TeO8,-1.833428953111111
mp-24719,NiH,-0.011127414374999001
mp-568244,TlSn2Br5,-1.141054301041667
mp-19373,LiVO3,-2.427956693666675
mp-866692,La3MnAlS7,-2.015772447535919
mp-5182,Nd2Fe14B,-0.05587589039215601
mp-998233,InGeCl3,-0.907087075999996
mp-7400,NaAlGe,-0.26544648666666604
mp-541106,Nb2Se9,-0.581150554232953
mp-756073,Rb2ZrO3,-2.691774728333333
mp-976055,Li3In,-0.287545142499999
mp-1773,ReB2,-0.448665842500001
mp-552604,YBi2ClO4,-2.4487773725000013
mp-771162,Na3CuSiCO7,-2.06908040877984
mp-558055,In2Cu2SiS6,-0.604181742443175
mp-756769,Na2TlPCO7,-2.109720525477901
mp-557177,Li2Al(BO2)5,-2.909059632222222
mp-20630,Ho(MnSn)6,-0.137181406352786
mp-745,ThMg2,0.027712816666668003
mp-781602,Mn8O13F3,-1.9499762922270132
mp-573651,Li22Pb5,-0.270948883456789
mp-557082,H2O,-1.267975343888887
mp-865656,TiMn2W,-0.24186066979885001
mp-9574,NaBeSb,-0.224457025459769
mp-17089,K3Eu(PO4)2,-2.829903004716836
mp-21067,ScInCu2,-0.34855347624999805
mp-767606,Na2NdPCO7,-2.729715381241789
mp-774319,Li10Ti2Fe3Ni3O16,-2.1096567491176472
mp-29784,K2Mo9S11,-0.9017229585653421
mp-775785,Hf2N2O,-2.528965143249999
mp-675479,PuPaO4,-3.897200003124998
mp-2085,PrCo2,0.048315211877271
mp-19926,La2Be2GeO7,-3.272402461250001
mp-18575,Nb2Zn3O8,-2.442323447307691
mp-27832,Tl2SnCl6,-1.431323001296296
mp-768893,Mg2(TeO3)3,-1.926676365535713
mp-15819,Mn3Al9Si,-0.27036606913793004
mp-26586,Li3Sb2P5O18,-2.481027736721939
mp-770763,LiMnPO4,-2.58364237977246
mp-11237,ScAg,-0.26337324500000003
mp-760311,Na7SbO6,-1.714788218546797
mp-769557,LiMnNbO4,-2.579481471252054
mp-865716,YbCl2,-2.024524606666666
mp-2571,Rb2O3,-1.0238412645
mp-773187,Li4Mn3V5O16,-2.345294877040229
mp-30451,SrCuBi,-0.613110852564095
mp-1020030,LiAl(GeO3)2,-2.504243655333333
mp-556523,LaPb6ClO7,-1.904376837999999
mp-541032,Te7As5I,-0.029679009935897
mp-557250,HgINO3,-0.7511069195833351
mp-770749,Li2Ti(BO3)2,-2.8742436375757583
mp-767873,V9Sb7O32,-2.261631456875
mp-481,ScPt3,-1.039966471249997
mp-647520,Sb2Pb2O7,-1.736012202272726
mp-19326,MnO2,-1.806826337643681
mp-28859,K2HgS2,-1.0272830079
mp-675093,Hf2N2O,-2.531268328249999
mp-32308,Ta2NiO6,-2.890584630518518
mp-560504,Rb2Sb2OF10,-2.8329147113333333
mp-752785,Sm4U4O17,-3.698969960599998
mp-753726,TbCeO4,-3.547740029444443
mp-22479,Zr4Pd2O,-1.253313301785715
mp-1019091,LaSe2,-1.985490972708333
mp-13240,ScInCu4,-0.2949053675
mp-4334,Sm(CoGe)2,-0.596627511000003
mp-8926,Li3BN2,-1.002301920833333
mp-987,ZnCu,-0.090755029999999
mp-764046,V3(O2F)2,-2.694006633888889
mp-4733,ThTi2O6,-3.788790012407407
mp-776689,Li3Fe2F9,-2.800135985892857
mp-764225,LiCo5O5F,-1.518208781944444
mp-620812,Y2Ge5Ru3,-0.6341028914999991
mp-865212,Fe3Re,-0.0029234043750000003
mp-560928,Sb2IBr2F11,-2.209712475859374
mp-510475,Y2Cu2O5,-2.575295285277777
mp-504760,Li10Pb3,-0.22123154467948603
mp-3838,Li5ReN4,-0.8175017920833321
mp-7621,KTcO4,-2.1536563837083262
mp-976017,Li3Co,0.32882361625
mp-767696,V2Co(H4O5)2,-1.563171786428571
mp-15501,Sr4TiAs4,-1.334374570046296
mp-771703,LaAlO3,-3.679706405333334
mp-760172,Na7Ti16O32,-3.155197294781608
mp-15575,Ho3Ga5O12,-2.977123041749999
mp-567381,KHgC2,0.19117810781250102
mp-956,U3Si,-0.268227811250007
mp-631405,ZrTcCl,0.474628285416663
mp-770381,Li3V3(BO5)2,-2.549203954351852
mp-614455,GdCu,-0.14120216499999902
mp-765258,Li4MnF8,-2.861779774712644
mp-12128,Li2MgIn,-0.216344614583332
mp-8923,Sr2LiFe2N3,-0.6645102297916661
mp-1013587,Sr3Bi2,-0.676365987800005
mp-867171,SrLi2Sn,-0.47317474291666606
mp-757890,LiSiBiO4,-2.498733691428572
mp-555891,SiO2,-3.2593559183333323
mp-34425,Zn(FeO2)2,-1.7014404111904762
mp-781607,LiMn3(BO3)3,-2.393550240914154
mp-867358,PuCl2,-2.152299367916669
mp-684619,Pr27Se40,-2.189709400708956
mp-31097,KAlH4,-0.27599496979166604
mp-20425,NpSi3,-0.23087377593749903
mp-24030,ZrP2(HO3)2,-2.532498742889609
mp-757312,NaInBP2HO9,-2.482671550349891
mp-864957,MnSbRu2,-0.27916170362069004
mp-21223,YbIn2Ni,-0.505247251250001
mp-39226,SrLa4TiAl4O15,-3.676868963133334
mp-756426,ZrNbO4,-3.253571734166666
mp-8499,Ho2Cr2C3,-0.311419584999997
mp-680061,Rb2Sn(GeO3)3,-2.083197408222222
mp-504898,Nb2Pd3Se8,-0.71586397403846
mp-13955,SmSi2,-0.6247261366666661
mp-722294,Nb3Zn3N,-0.5546957646428541
mp-685862,Tm10Ti6O27,-3.786226298720932
mp-974982,Rb3In,0.102852842708333
mp-19453,Te2MoO7,-1.667758174333332
mp-1014231,Hf2Zn,-0.20263765833333902
mp-543051,Lu5Sb3,-0.9500908844791661
mp-8866,La10Se19,-2.088301255765087
mp-19414,K3CrO4,-1.92780925959375
mp-2938,Tm(FeSi)2,-0.6499582460000021
mp-756508,NbPHO5,-2.485711221361607
mp-738663,Sn2H10C4N2O9F2,-1.328494742931034
mp-15013,RbBS2,-1.132632064583333
mp-767765,Li34Sb8S7,-0.9454124813435361
mp-1018896,PrPbAu,-0.575288955555553
mp-1014227,Ti2ZnN,-1.152884401666667
mp-1559,Mg3N2,-0.9422394225
mp-707841,PH6NO3,-1.244178688376622
mp-764295,Na4(NiO2)9,-1.093087606307007
mp-6758,KNa4SnSb3,-0.431994915029692
mp-1328,SrRh2,-0.255013673333332
mp-19314,Mn4Be3Si3SO12,-2.760727641488006
mp-1873,ZnF2,-2.561514461666667
mp-757947,Li2Sn(PO3)5,-2.513773720864388
mp-20983,V2InC,-0.42035901499999806
mp-5051,Ho2Mo2C3,-0.358858727857141
mp-648893,Na4V2O7,-2.316589102251327
mp-12418,SrCaGe,-0.708072101666665
mp-4437,NdTe2Se,-1.312472164140622
mp-14730,NaSiSbO5,-2.484807840797415
mp-554944,TiSO5,-2.5393963802976183
mp-1019277,SrHgPb,-0.46311798750000105
mp-813,ScAl2,-0.530798523333333
mp-505798,Na4TiSe4,-1.335474887580619
mp-1682,ZrAs,-1.136777426250001
mp-5388,Zn(SbO2)2,-1.7498168192857122
mp-8697,ScBO3,-3.436941156833332
mp-776229,Ti2N2O,-2.132641380833334
mp-6088,LaCuSO,-2.355128379375
mp-4622,Li2BeF4,-3.364770863571428
mp-569978,Na2Ti3Cl8,-1.758499436923076
mp-569082,Sm(Sb3Os)4,-0.216806414117647
mp-555370,V(MoS2)2,-1.041181168571429
mp-972680,Sm(AgGe)2,-0.398434781666666
mp-13334,ZnSnO3,-1.939425192999999
mp-16179,SrCu2GeSe4,-0.9285219524218741
mp-865274,TlInS2,-0.771522323437501
mp-17424,TmGa3Ru,-0.578806804499999
mp-641069,Pr5NiPb3,-0.48125078537036803
mp-1189,PrAl2,-0.53734372222222