material_id,formula,formation_energy
mp-12892,CaSi2,-0.345148746666667
mp-30221,Ba5P5I3,-1.338471745247252
mp-18963,Ba2Mn3(AsO)2,-1.393995162088123
mp-18776,CaCoP2O7,-2.7164143640259732
mp-984766,Ca(BH4)2,-0.465841162121212
mp-1018179,AlAu2,-0.317411696666667
mp-27802,BaSn2S3,-1.2595916695833291
mp-13549,CeZnAu,-0.58276365833333
mp-5402,CaTl2O4,-1.72750916166667
mp-7104,CsCaF3,-3.715830655999998
mp-9086,CsDyS2,-2.119147307656245
mp-865219,Dy2IrRu,-0.609520068333332
mp-20898,DyInAg2,-0.35890147791666505
mp-27739,As2S2O9,-1.679533246346201
mp-20958,Ba2LaReO6,-2.96140979275
mp-760370,Bi6O5F8,-2.322888661578949
mp-998432,CaTcO3,-2.366076372
mp-19413,AlWO4,-2.63203482
mp-769049,BaLaCl5,-2.827429753928572
mp-14765,Ba(Ni5P3)2,-0.6355230686974781
mp-541738,Cs3Cr2I9,-1.153057670997535
mp-18474,Ag8GeSe6,-0.33250190015972203
mp-12779,CdTe,-0.5581268500000001
mp-760758,Bi3O4F,-1.764202838750002
mp-570930,Bi2Pb2Se5,-0.538185836145828
mp-593,Al4Cu9,-0.23310230192307702
mp-29576,Cd7P10,-0.143591411456581
mp-16514,Al3Ni5,-0.563250544999998
mp-1008275,Cr3Ni,0.176166943749999
mp-570921,CsLu(NbCl3)6,-1.911929672743148
mp-568565,CrAs,-0.17219165125000002
mp-1,Cs,0.019341450000002
mp-695866,BeH8(NF2)2,-1.4985561715
mp-11653,BPO4,-2.725271157857143
mp-5972,CsPd2F5,-1.851582921249999
mp-861604,Ca2TlPb,-0.495178358333334
mp-28246,AgTe3,-0.017118973749997
mp-557735,BaCuTe2O7,-1.812993904393939
mp-772886,BaLa2Cl8,-2.83695435
mp-755263,CrS2,-0.8691883449999991
mp-1132,CdO,-1.346151347499999
mp-14245,Dy2Si5Rh3,-0.968891131333332
mp-552200,Ba2TaBiO6,-2.936263530733333
mp-4362,Cu2Ag2O3,-0.65898790047619
mp-560042,AsS3(NF3)2,-1.388680811041666
mp-24170,CaPH3O4,-2.17247984454365
mp-675345,Bi5(S2Cl)3,-0.55629623245533
mp-505825,Cs2PtC2,-0.05227855586207
mp-8110,AlBO3,-3.118357856833333
mp-20517,BPd3,-0.263228629374996
mp-1253,BaSe,-2.283761781171875
mp-672265,Cu3Pd,-0.099534913571428
mp-505558,Dy3CuGeSe7,-1.532251464283852
mp-662534,AgIrF7,-1.490580648333332
mp-6280,Al2Si(O2F)2,-3.5297768330555552
mp-996969,AgBiO2,-1.147583364166665
mp-849071,Cr3S4,-0.92470213642857
mp-556826,Ca(BO2)2,-3.111709106904761
mp-16522,Al2Pd,-0.644575986666666
mp-30529,B5H11,-0.049254262826703005
mp-30942,Ba6Mg11F34,-3.9371352810784312
mp-628618,Ba5Os3NO18,-2.199069989074075
mp-703231,CdFe2Sb2(PO4)6,-2.352485540795919
mp-626435,Al(HO)3,-2.039267438035715
mp-985296,Ag3Pd,-0.06677629124999701
mp-752671,Ba2SrI6,-2.002679033333333
mp-696656,BH4O2F3,-2.066942876916666
mp-30444,Be22W,-0.04122698
mp-27757,Be4B,-0.016717138833333003
mp-1018680,DyTlZn,-0.37328561083333
mp-14215,Ba4GeP4,-0.917253411230157
mp-640108,Ce2InNi2,-0.46323811333332904
mp-694994,CoH22N7(ClO2)4,-0.382990586964286
mp-11287,CaHg2,-0.5177227816666671
mp-542550,Cs2Si2Se5,-1.119574757058788
mp-6759,BaGa2(SiO4)2,-2.979884517884614
mp-667314,Ba9(TaN6)2,-0.9244693749855071
mp-4483,AgAsSe2,-0.30125162846354103
mp-26796,Cu5P3O13,-1.7749282325680271
mp-608594,CrWO4,-2.194589917500001
mp-568744,Ba2Cd3Bi4,-0.45274788055555903
mp-1112,CeCo2,-0.23419471666666503
mp-1019557,BaS4O13,-2.002803418611111
mp-23558,Ag2BiO3,-0.9173112705555521
mp-21710,CaGeAu,-0.7222714347222201
mp-756014,Ba4HfO6,-3.213950358181818
mp-989568,Cs2NaMgF6,-2.959081592568965
mp-555565,Ag5(PbO3)2,-0.8021014560256401
mp-998427,BaZrSe3,-1.920462955906249
mp-949,CoPt,-0.073157964999999
mp-23207,ClO2,-0.352869884583334
mp-626295,Ba(H8O5)2,-1.357903475
mp-766249,Bi24Br10O31,-1.572121369307693
mp-12464,Co(PdSe)2,-0.252444538624999
mp-3879,Ba2CuF6,-3.391703464444444
mp-562764,Ba7B4S13,-1.758704179756944
mp-1006880,BiB,0.8213030854166661
mp-10045,Ba5As3,-1.0053669578125
mp-779363,Cr4OF11,-2.88007553875
mp-23091,Ba2BiSbO6,-2.452866078000001
mp-1518,CeRh3,-0.657204234999998
mp-571621,Ba3Na2(CN2)4,-0.859469966779919
mp-676077,Ce3Nd2O9,-3.821363692857143
mp-531132,Ca3(PO4)2,-3.322326683241757
mp-1019522,Ba2B10O17,-2.99083868178161
mp-653005,Ca2(Fe2O3)11,-1.7267430299122801
mp-11957,CaSn2Ir,-0.581363194999998
mp-554873,Ag2B8O13,-2.510655715724636
mp-17885,Ba2Ge2Te5,-1.086984500092593
mp-23009,Ca2BrN,-1.635277027499999
mp-24348,BiP4HO12,-2.410865821656745
mp-16960,AlPt2,-0.923852272499999
mp-23522,BaZnCl4,-2.266131693750003
mp-10378,Cs3Sb,-0.500301612499999
mp-703539,AgB11H6CBr6,-0.489973033799999
mp-23451,Cs3Cr2Br9,-1.625175163140391
mp-11670,BaYSi4N7,-1.43608270076923
mp-22605,Cr2CdSe4,-0.8274603791964281
mp-18843,Ca3FeRhO6,-2.460654356818181
mp-561380,Ag2Te4O11,-1.243297442647058
mp-558153,Ba4Nb2(OF4)3,-3.799329723650793
mp-568032,Cd(InSe2)2,-0.830078093244046
mp-12362,AgHg3SbO6,-1.005880865833335
mp-9867,Ba2Si3Ag,-0.43518952444444103
mp-1018079,CrGaP2,-0.07222095898809501
mp-989585,Cs2KPbF6,-2.774147984656034
mp-20225,CePb3,-0.354788227499995
mp-720430,CaB3H7O9,-2.125655119812499
mp-22498,CrSb2,-0.046233308333337005
mp-754304,BaYI5,-1.759991043928571
mp-26658,BiP2O7,-2.267775065428571
mp-680144,CdI2,-0.82497301491228
mp-530149,Ca12Al14O33,-3.435694530254236
mp-560163,Ca4Si2O7F2,-3.629979529999999
mp-776795,BaYBr5,-2.361626349999999
mp-644875,Ba2(InAs)5,-0.5238895036111121
mp-560544,Ba3Zn5In2O11,-2.182818506825396
mp-27636,Cs2SnI6,-1.163201927145591
mp-23717,Ca2MgP2(H2O5)2,-2.621099851541352
mp-542496,Ca6Ag16N,-0.315113251250001
mp-12885,BaAl2Sb2O7,-2.768880493749999
mp-7429,Ca(ZnSb)2,-0.523427615999999
mp-20879,CaHgPb,-0.3501864175
mp-754515,BaMgGe,-0.524012354999999
mp-569754,Ba7Sn3Se13,-1.683870600129075
mp-752410,Ba2GeO4,-2.8195511010714283
mp-504601,Cs2ZnO2,-1.526711924612068
mp-569424,Cr2B,-0.20619314833333302
mp-560328,Ag15P4S16Cl3,-0.48195274154135204
mp-555246,Ba3LuRu2O9,-2.660974772444445
mp-7909,Al2CdTe4,-0.582113531428575
mp-560845,Cu2As4S3Cl2,-0.32200814755366103
mp-1502,Al2Pt,-0.989689963333328
mp-1018735,BaTi2As2O,-1.6946891927777772
mp-865364,DyTaRu2,-0.356988389749998
mp-867213,Er2OsPd,-0.605359682499996
mp-542188,Cr(MoS2)2,-0.95958100642857
mp-761126,Cu4OF6,-1.562272698181818
mp-1019087,CaSnHg,-0.44414865083333505
mp-257,DyIn,-0.5934552324999981
mp-703461,GeH8N2OF6,-1.5640113326388891
mp-531296,Ge(PbS2)2,-0.741943093392855
mp-697677,CeMg2H7,-0.412733163124999
mp-866302,BaNaP3H3(NO2)3,-1.950024810532816
mp-722867,Ca3Cu5Si9O26,-2.742382492325582
mp-14972,Ba3Sc(BO3)3,-3.282306826927083
mp-23418,Hg3(SCl)2,-0.703719284642854
mp-20002,FeAg2SnS4,-0.49559193854166506
mp-559427,BaSr4U3O14,-3.637355124545455
mp-756160,Er3TaO7,-3.8503711456666663
mp-31164,Ce7Ru3,-0.270621242999997
mp-18754,DyCrO4,-2.779022291111109
mp-569608,BP2N2Cl7,-1.127033422162697
mp-1018674,DyAlZn,-0.5112561883333341
mp-3038,Al2HgSe4,-0.825231304821429
mp-5918,Hf2NiP,-1.042635325744047
mp-30892,Ba4Bi3,-0.911764586428576
mp-779592,GdOF,-4.128327070833333
mp-18974,HoNiO3,-2.507236383999999
mp-571177,Hg3Te2IBr,-0.532830796547621
mp-19421,FeWO4,-2.022696756666667
mp-33365,CeGaO3,-2.890761752499999
mp-774557,Er2TeO6,-3.037896960462963
mp-555269,Ag3SbS3,-0.20678933263392502
mp-8016,AlCuSe2,-0.7563341932812491
mp-560216,Cs2GeP4O13,-2.59037369514409
mp-777731,Ba6YBr15,-2.4691399145454542
mp-558566,Ba5Er2ZrAl2O13,-3.494424863043479
mp-743878,Fe2Te4H3ClO12,-1.482956905473484
mp-8306,Ba3FeN3,-0.711653332857142
mp-1869,GaPd2,-0.640044858333332
mp-756393,Er2Nb2O7,-3.400324842272726
mp-23349,Bi(BO2)3,-2.568614331750001
mp-23944,BaH6Cl2O11,-1.173256439625
mp-765860,Fe2CoO4,-1.527350056428572
mp-625850,H7NO6,-1.1280233893749991
mp-625509,H3BrO,-1.02984396275
mp-570231,CsCdBr3,-1.552803656931034
mp-997033,AuBrO2,-0.07940325874999901
mp-11456,HfPt3,-1.184154229375003
mp-558268,Ca4Si6Pb6Cl2O21,-2.803339358205128
mp-16267,Dy2CdS4,-1.941305193333331
mp-13364,CaZn2,-0.27766093083333104
mp-685036,Al2O3,-3.31575971325
mp-22215,Ba2Y(CuO2)3,-2.229420791666667
mp-754263,Ho2CuO4,-3.117483926428569
mp-17708,Ge3Sb2O9,-1.9797399339285722
mp-558849,CdBiS2Cl,-0.739189207124999
mp-772431,CoH8(CO5)2,-1.347317503571428
mp-684674,Cr5S8,-0.969433726153844
mp-556418,AlSCl3O2,-1.831841661071428
mp-971924,DyYAg2,-0.313097208749998
mp-555332,BaCu(SiO3)2,-2.855667579499999
mp-735475,CoB12H28(NO15)2,-1.848557908835616
mp-22079,AsRh,-0.524296318749999
mp-558689,Ba2PrIrO6,-2.670997083666667
mp-770392,BaLaBr5,-2.416603513214286
mp-1575,CaC2,-0.13803003333333302
mp-6528,Cs2NaAlF6,-3.407736822568965
mp-34322,Dy2Ti2O7,-3.77932238863643
mp-29246,Cd2P3Cl,-0.445781676383925
mp-542727,Cr2(Co7B2)3,-0.12456846672414401
mp-769232,Dy2(SeO4)3,-2.083795793550857
mp-759069,B(HO)3,-1.851618407083334
mp-5305,CuAsS,-0.23201982510416502
mp-570122,Cr3Te4,-0.381463390952381
mp-28514,Ba(BrO3)2,-1.155787542777778
mp-992,CaGa2,-0.57802759
mp-984660,Dy2InHg,-0.582496736875
mp-2496,Cs4Sn23,-0.18801156388889
mp-555860,EuTiClO3,-3.197513430555556
mp-23476,Cd7(P2Cl3)2,-0.7765273248179261
mp-30234,Cs2WCl6,-1.812488828812256
mp-7618,Cs3YF6,-3.477281507
mp-557806,Er2Tc2O7,-2.753700506363636
mp-962078,CaCdSi,-0.084177969999998
mp-559442,Ba2Ru7O18,-1.7513619711111121
mp-7013,Ho2Be2SiO7,-3.586752802083332
mp-558375,Ce3CuSiS7,-1.805704806458332
mp-7812,GeO2,-2.063292658333335
mp-703398,CuH20Se2(NO7)2,-1.082071012812499
mp-7128,Cd(AsO3)2,-1.696672477222217
mp-864646,ErAgHg2,-0.31478544166667
mp-606377,Ce2Zn4Ru,-0.37997502785714504
mp-9755,HfGeO4,-3.05788336833334
mp-753610,BaCaI4,-1.894654932499999
mp-962062,BaSrSn,-0.198036074999999
mp-867773,DyMgCd2,-0.277625719166664
mp-14448,Ba2SiTe4,-1.3028846888095251
mp-7577,CoSi,-0.4929253525
mp-680172,CdI2,-0.8251264204545451
mp-37836,Al(HO)3,-2.028316064821429
mp-570651,Al17Mo4,-0.29805339773809303
mp-14786,Ba(Cu2As)4,-0.21444591923077802
mp-8234,BaTe3,-1.201598257499998
mp-1019581,CaS3O10,-2.086964663571426
mp-19950,Dy2Ti3Si4,-0.8551573502777751
mp-779511,Ba2MgO3,-2.864761999583333
mp-27346,Al2Hg3Cl8,-1.26388935826923
mp-9515,Al2SiO5,-3.274981406875
mp-19361,Cr2(SO4)3,-2.014279678382353
mp-763206,Co3OF5,-1.9938534588888892
mp-573119,BiRhO3,-1.3468585145
mp-2611,BaGe2,-0.48057167666666706
mp-21158,CeAlPd,-0.809705669999999
mp-891956,Ca10V6O25,-3.018827914756098
mp-27384,AgIO3,-0.713068665333332
mp-21048,CrP,-0.40680133273809405
mp-867767,BeSiRh2,-0.812091816249999
mp-23318,BiSCl,-0.7342089301041691
mp-6127,BaCu(Si2O5)2,-3.012247951718751
mp-4428,CaSiO3,-3.425096944333334
mp-6621,Ba2ErRuO6,-2.8655752519999993
mp-23227,CuBr,-0.47606955999999906
mp-622108,Ba2TmCu3O7,-2.1958138603846162
mp-499,AgO,-0.439935543333332
mp-760491,Ce4Y2O11,-3.876075379705882
mp-756522,CuTe(PO4)2,-2.026380579662698
mp-1006330,Ce3Cu,0.17109729749999703
mp-768878,CuReO4,-1.745691165972222
mp-8066,Cu3As,0.07952983499999701
mp-553374,Cs4Sb2O5,-1.801426312147338
mp-9639,BaCu(SeO3)2,-1.73323289196875
mp-625961,H5IO6,-0.985601470520833
mp-862668,CeHg3,-0.432295460624999
mp-29209,Ba(MgBi)2,-0.5920732000000011
mp-10480,CsAg5Se3,-0.47073491083552704
mp-10488,Cs2Ti(AgS2)2,-1.2236720534418901
mp-27626,Ge19(AsI)4,-0.141546617407407
mp-685257,CdPbO3,-1.375123976249999
mp-1008472,CdSiP2,0.5245032522619061
mp-559575,AsSe(IF2)3,-1.7037208815767042
mp-23092,Ba2TaBiO6,-2.9503295747333342
mp-7531,Ca4Al6O13,-3.437075475869565
mp-989622,BaWN3,-0.8219546254999991
mp-30368,Ca5Au3,-0.7121120562499991
mp-558637,AgTeO3,-1.125950917416666
mp-558703,Al3Pb5F19,-3.145028351018492
mp-1018086,CePd,-0.7748391274999981
mp-705551,Fe15O16,-1.441563290645162
mp-626127,H7NO6,-1.070045790803571
mp-781507,Fe4O5F3,-1.844708173333333
mp-39684,GdTiCdSbO7,-2.7835351125757573
mp-554002,Al(HO)3,-2.037430720535714
mp-555439,CsLi3F4,-3.0375792096875
mp-752656,BaLa2O4,-3.606246316428572
mp-771189,Ba4Ti3O10,-3.431557339411766
mp-927,CuP2,-0.156310461150794
mp-31250,BiBO3,-2.290466749833336
mp-35143,BaNbS3,-1.746531285499999
mp-624299,Cu7S4,-0.23135375534090802
mp-866296,AlCuPd2,-0.6301237899999991
mp-763931,CoOF,-1.589730717222222
mp-505070,CeTa3O9,-3.470269011307691
mp-772959,Er2P4O13,-3.152769186635338
mp-632802,Ba2CaTlCu2O7,-1.9780873029487172
mp-28234,CaAl12O19,-3.4289828259374993
mp-29060,Ba5(SiN3)2,-1.008341755769231
mp-17093,ErSiPd,-1.011576034583331
mp-985277,Ce2USe5,-1.903603474902342
mp-11398,Ga3Ni5,-0.35950712624999903
mp-10486,Cd2As2O7,-1.659347869090909
mp-989782,Cu,0.012339934999999
mp-10965,DyAgSb2,-0.70119505083333
mp-18642,Ca(YS2)2,-2.407047725892858
mp-866115,Be2PdRh,-0.650607097499999
mp-779608,Ba3(BO3)2,-3.101388789848485
mp-705495,CaB3H5O8,-2.266489946985293
mp-541096,CsUNbO6,-3.235346197183908
mp-16813,BS4N4F3,-0.8460727624305551
mp-23444,AsCl2F3,-1.580068915416666
mp-653450,CuAg7As4ClO14,-1.099733378024691
mp-690112,H(WO3)2,-1.663241334583332
mp-6404,BaCa2(PN2)6,-1.057141498588434
mp-631495,BaYSc,0.8405989183333331
mp-866833,CaSnS3,-0.9981712384999981
mp-14941,Al2Pb3F12,-3.187346978088234
mp-568945,DyCo3,-0.154753695416663
mp-31153,CaGePt,-0.9069371558333301
mp-776475,Al2O3,-3.391516563250001
mp-753594,BiOF,-2.215164298333333
mp-23232,FeBr3,-0.7636172024999981
mp-772077,BaYI5,-1.788980515357142
mp-1882,CaCu5,-0.11010331000000001
mp-754920,BaYF5,-4.274080337857144
mp-6416,Ba5Er8Zn4O21,-3.269581095921052
mp-778079,BaYF5,-4.295825315000001
mp-558491,BaAlBO3F2,-3.5424739598958332
mp-849797,B6H10C2SBr,-0.29046604268749904
mp-9600,Cu2GeO4,-1.3558092
mp-626568,Al(HO)3,-1.999795497678571
mp-5901,CeMnSi2,-0.651657767370688
mp-778,Fe2P,-0.45708832265872906
mp-542704,CsHCO2,-1.560312005181034
mp-582080,Cs3LaCl6,-2.425495910499998
mp-1006887,CdC,1.9901083212500001
mp-4452,Cd(GaS2)2,-0.8257759216071421
mp-754646,Dy2Ge2O7,-3.046913139848485
mp-770427,BaLaCl5,-2.847769456428572
mp-13765,Ce3Co11B4,-0.36683725925925903
mp-756444,Ca2Ti6N2O11,-3.149443694523809
mp-555617,Ce10Si8O3,-1.360804182142855
mp-755928,Cu2O3,-0.4589598535
mp-558911,Cs2Co3S4,-0.732697816154767
mp-29292,B10H13,-0.09124897069293501
mp-554658,Cu(SbO3)2,-1.6386806038888881
mp-642823,Dy2V2O7,-3.235672241666665
mp-21839,Ba4Ge20Au3,-0.321703033333332
mp-29457,Ba2Cu5F14,-2.496611849761905
mp-554678,CaGe2O5,-2.499478427499999
mp-770125,BaLaCl5,-2.834470620357142
mp-557998,Dy3CuSiS7,-1.810544322708331
mp-28925,Ca4(PPd)5,-0.9652512373724481
mp-708992,AlH20C2S2NO14,-1.298310845124999
mp-23454,CsAgBr2,-1.342807492830461
mp-6667,CaBPO5,-3.086029206517857
mp-14100,Cd(RhO2)2,-1.207960801428568
mp-676121,Ag3SI,-0.25334974249999803
mp-690703,BaH4(ClO)2,-1.8198713391666672
mp-627414,Cr2Ag2O7,-1.285623875303029
mp-16600,Dy2B4O9,-3.288080790333332
mp-27202,B9H8S,-0.20028518958333302
mp-23077,Cs2UCl6,-2.243108233333332
mp-570053,Bi8AsAuCl9,-0.906302310526317
mp-1501,Al3Pt5,-0.9792966056250021
mp-644246,EuH3Pd,-0.590813538249999
mp-23719,BeAlH5,-0.134761895892857
mp-16281,Cd2Sb2O7,-1.773935311818181
mp-554688,Ba6Hf5S16,-2.128523974814813
mp-561099,Ba4Os6ClO18,-2.069719544827587
mp-556578,Cd(IO3)2,-1.012162112499999
mp-567913,CsAuSe3,-0.580733772437503
mp-753519,CuPO4,-1.8791115853571432
mp-34932,CaHN,-0.8929288191666671
mp-555132,BiXeF9,-1.549742650000001
mp-631492,BaScIr,0.901431278333333
mp-697981,Cd3H2CSeO8,-1.490243329156249
mp-5859,AlPO4,-3.109485740634921
mp-755074,CeOF,-4.084567068333334
mp-1019378,Al3GaN4,-1.409947991875
mp-28645,CaNiN,-0.794289061666665
mp-17141,Er3(AlNi3)2,-0.5896025254545441
mp-34787,Ag7NO11,-0.506803181666666
mp-10510,BaAlBO3F2,-3.542324607395833
mp-865147,Be2CuRu,-0.248225409999999
mp-640553,BaNb2O6,-3.178795939444445
mp-568512,Ba6Mg23,-0.050287461896550006
mp-166,Ca,0.02121779
mp-35986,Ba4Nd3F17,-4.316492313854167
mp-684583,CsO2,-0.9312647415517241
mp-558310,BaLi2SiO4,-2.982801668541666
mp-5900,Ba2ZrF8,-4.161155802954545
mp-1007961,CrInCu2,0.175193845178572
mp-1222,CrSi2,-0.24404875222222003
mp-722862,CdH3NO5,-1.176070217249999
mp-572543,CsPr(PO3)4,-2.913337414438515
mp-4989,CrNiAs,-0.21253556249999803
mp-6820,Cu2Hg2SF6,-1.569010677045455
mp-559469,CaH6C2O7,-1.6906620817187492
mp-2733,Al8Mo3,-0.38162391545454605
mp-647426,Cs2NpBr6,-1.967561964228931
mp-3344,CeAlRh,-0.8916973124999991
mp-758662,Ba2GaP4HO14,-2.822706717150973
mp-771321,Cs4GeO4,-1.8542164848467442
mp-556615,CaBi6(PO5)4,-2.399999724792627
mp-11696,As3W2,-0.0927698695
mp-866834,Ca2SnS4,-1.552027074999999
mp-1018662,CeSbPd,-1.184261033333333
mp-561947,CsHgF3,-2.246846599431038
mp-23549,Bi3B5O12,-2.435378658541668
mp-714929,CrO2,-1.8631402600000002
mp-28896,CuBIr,-0.211953697499997
mp-29760,Ca10P6O25,-3.318827082264808
mp-5020,BaTiO3,-3.492236987666666
mp-3952,BaY2O4,-3.644422620714285
mp-33683,AgSbSe2,-0.207029625781252
mp-27148,BeP2,-0.319383066011903
mp-6989,BaSeO3,-2.318079119468748
mp-849513,Fe2Sb(PO4)3,-2.310054099940476
mp-29682,BaAg8S5,-0.521217914345237
mp-772875,Ba2SrI6,-2.006729354444444
mp-1654,CeNi2,-0.37606512333333303
mp-37779,Fe5CuO8,-1.46461343
mp-17216,Hf5Si4,-0.8415825722222191
mp-780895,Fe4O7F,-1.457730849999999
mp-989570,Cs2CaSnCl6,-2.208531221431035
mp-7907,Al2ZnSe4,-1.100773949910713
mp-984791,CaTmCd2,-0.303749737500002
mp-694885,CaLaMnNbO6,-3.162563106793104
mp-569421,Hg9P5I6,-0.26540480128571703
mp-707027,CaScSi3HO9,-3.25580806975
mp-774995,Fe5(OF4)2,-2.324643558999999
mp-32884,Ag2S,-0.10776626593749901
mp-862700,AlVOs2,-0.60377356
mp-866189,CeCd2,-0.33158148333333304
mp-557115,Cs2As2OF10,-2.67757732962069
mp-1007652,InAs,-0.38081474124999903
mp-8301,Gd2CF2,-2.582305723999996
mp-747,BaPt2,-0.726165013333333
mp-31232,In2PO5,-2.281866629122024
mp-23559,In(IO3)3,-1.049928341282051
mp-764345,CrPO4,-2.5739355932738093
mp-973055,Hg3Au,0.150807638229167
mp-9994,Ho11Ge10,-0.8366941292857131
mp-768369,Ba2YF7,-4.23055776325
mp-542081,K2LaP2S7,-1.354670371982142
mp-677489,CsTiCuOF5,-2.927818403109834
mp-10106,Ca2As,-1.110494664166665
mp-580357,Cu3Pd,-0.095113082499999
mp-530274,Al23B50,-0.069090475136986
mp-631537,BeReB,0.8464212311111101
mp-696490,Ca2H2S2O7,-2.236790758461537
mp-574529,Al(SeCl2)2,-1.069165520446427
mp-626279,Ca(H8O5)2,-1.379964721296296
mp-995183,CO,-0.7771149775
mp-2951,CdGeO3,-1.8570413364999991
mp-581864,CsAsSe2,-0.861460288585669
mp-571622,Be12Pt,-0.094288496153846
mp-561033,CsCu5S3,-0.44645728829861103
mp-777883,Ba6YCl15,-2.83077659090909
mp-559757,Ba3Cu2(ClO2)2,-2.247765554545455
mp-19128,CoO,-1.27141856625
mp-13254,CeMgZn2,-0.27305012374999904
mp-17224,Cu(PO3)2,-2.232536408253967
mp-20452,Ba(MgPb)2,-0.36364582900000003
mp-23218,AsI3,-0.47864313937499803
mp-31147,BaZnSi,-0.35156586833333303
mp-755065,Ce2Ti2O7,-3.660334544696968
mp-31100,CeIr3,-0.6292123575
mp-628614,Ce2Si7Rh15,-0.862579937083333
mp-569984,Cs3Au2Br11,-1.199117871185345
mp-18093,Al2Mo3C,-0.21010948375000002
mp-573150,Cs2GeO3,-2.055193100718389
mp-18804,BaDyCo4O7,-2.062001783974359
mp-12637,Ba2NdNbO6,-3.35878035975
mp-989519,Cs2RbNF6,-1.8170510231810342
mp-768983,Ba2YCl7,-2.8349333002500012
mp-24422,CaHBr,-1.572255617083334
mp-27349,BSF7,-2.523463705740736
mp-10010,Al(CoSi)2,-0.47014906999999906
mp-984358,Au3O,0.196535863749999
mp-555845,BaLiZr2F11,-3.9773184472222223
mp-10923,Ca2Co12P7,-0.6892207139285711
mp-1385,CeZn2,-0.294554233333333
mp-7359,BaAgAs,-0.7835291347222181
mp-505141,Cs2SnS14,-0.40528634893382104
mp-863739,ErCdRh2,-0.5866167199999971
mp-2513,As2Pt,-0.607378169999999
mp-752682,Ba2Sr7I18,-1.927562117037037
mp-558751,Ca(BiO2)2,-2.140257175357141
mp-569913,Ce3SiPt5,-1.10005256222222
mp-132,Ca,0.005909895
mp-1432,Be2B,0.040718446944444
mp-19827,CeAlPt,-1.016719620833331
mp-614603,CsI,-1.729146057327588
mp-3575,Ca3(BO3)2,-3.28817981121212
mp-29746,Cd4P2Cl3,-0.734202555383597
mp-626504,Al(HO)3,-2.01962371625
mp-12065,Ag3Pt,-0.020391218749995003
mp-36216,Ag2S,-0.10611317427083301
mp-778103,Cd(BO2)2,-2.443860448511903
mp-561149,Ce2O3,-3.726515860333332
mp-23040,Ca2PI,-1.503881859910714
mp-1019576,Ca4SiN4,-1.2228174252778001
mp-567878,AlTlBr4,-1.464957673888887
mp-15704,BeSiN2,-1.398607744375
mp-24421,BaH2Cl2O7,-1.245627279374999
mp-644222,CdHClO,-1.408678980312499
mp-4337,Dy(GeRh)2,-0.8784841763333311
mp-6257,CsNb(BO3)2,-2.89789627879885
mp-768674,Cs4Zr3Se14,-1.231093151517855
mp-697268,AgH2SNO3,-1.016621968177083
mp-984052,Ba(LuS2)2,-2.415832439761902
mp-10848,AsPdS,-0.40359472510416505
mp-11902,Ba2GeSe4,-1.62330692705357
mp-741593,Ba4Y2Cu4W2O17,-2.383165223275862
mp-12073,Ba(BIr)2,-0.5000045856666671
mp-862,CaSi2,-0.39796676166666706
mp-755943,CaPbI4,-1.317511259583332
mp-613910,BaNiF6,-2.64310074375
mp-862291,BeGaRh2,-0.671457313124999
mp-19213,Ba2Mn2Sb2O,-1.223353110123153
mp-6915,As2PdO6,-1.370038654999999