material_id,formula,formation_energy
mp-624474,Ru(SCl3)4,-0.6532054464705881
mp-775511,KLi(WO3)6,-2.19243271963782
mp-672187,Pr2Pd2Pb,-0.7689480376666661
mp-30325,In2(Se2O5)3,-1.39122602575634
mp-8686,Na3AsSe3,-0.956518379955357
mp-15269,Sr3CdIrO6,-2.355794370000001
mp-754645,MgCl2O,-1.433469556875
mp-11464,MgHg2,-0.108657893333334
mp-15201,Pr2Ti2O7,-3.714439192499989
mp-766103,Li7Zr3Nb(TeO6)4,-2.428116494102563
mp-669540,K2PtN4(ClO4)2,-1.068535811147059
mp-630976,In3Ir,-0.271095426249999
mp-25460,Li3CuPCO7,-2.207437915357142
mp-557930,SiO2,-3.24084198125
mp-976261,NaCa2In,-0.314427968137932
mp-865920,YbPmZn2,-0.370082558124998
mp-554603,K5NaCe2(SO4)6,-2.434387508490245
mp-697708,Sm2Si5Ru3,-0.8872683442500001
mp-27984,PrClO,-3.453472725555557
mp-763339,Fe7(SiO6)2,-2.020683488333333
mp-849667,Li4Co5O9F,-1.6111949696491221
mp-1009020,KCuO,-0.35897504408333203
mp-579677,ZnB3Ir4,-0.29638850718750104
mp-977585,Zr3Tl,-0.15850977875000102
mp-555023,KCa4(BO3)3,-3.156328408514706
mp-510579,PrNiSnH,-0.624532640729165
mp-777963,Li3SbH18S4O9,-1.225581935357142
mp-570443,Tl2CN2,0.053579225166667
mp-558162,RbP(OF)2,-2.8821263666071433
mp-976402,NaZnAs(H2O3)2,-1.585142802606101
mp-694884,KFeH5(SO5)2,-1.287818553605263
mp-29081,P4SO7,-2.038897178005951
mp-12059,Sm(PRu)2,-1.027911770857142
mp-768931,Ga10Si2O19,-2.388993646129031
mp-721294,NaB5(H2O5)2,-2.365504776235631
mp-1018023,Mn3Sn,0.22307624030172202
mp-28080,K2SnTe5,-0.793495430354165
mp-554824,La3RuO7,-3.137618632045455
mp-35031,Pr5CuSe8,-1.9104824841666521
mp-560739,K3Li3TeO6,-1.9521160929551271
mp-650960,Hf(ClO4)4,-0.855031357380953
mp-772588,Li2V5B3O13,-2.6095997397463773
mp-617543,Th(InBr3)2,-1.625695282592591
mp-779891,Li6Mn5Fe(BO3)6,-2.480524570407087
mp-569600,Ge3As4,-0.006724207142856001
mp-570159,SmZnSn,-0.633121054999996
mp-10408,K2CN2,-0.615292346999999
mp-975812,PrSm3,0.026284092083333002
mp-765411,Li3CrSiO5,-2.61505632625
mp-752927,LiAgF2,-2.115317975416667
mp-975199,RbSr3,0.138701825625
mp-561108,Y(IO3)3,-1.466369223461539
mp-560458,Rb2U2O7,-3.304101588636362
mp-766504,Te2(PO4)3,-2.131232904838935
mp-555156,MnCrF5,-2.99918572899015
mp-768695,Ho2Ti2O7,-3.791100260378852
mp-28107,Na4Ge2Te5,-0.720424225
mp-989179,Mo4HS8,-0.570851734807691
mp-567203,La(SiOs)2,-0.7025394449999991
mp-530146,MgAl2O4,-3.356793371071424
mp-10991,YCuAs2,-0.9308459400000011
mp-549589,LaZnAsO,-2.0605112243750012
mp-11517,NbRu3,-0.12545385625000002
mp-996986,LiCuO2,-1.405479454583333
mp-677370,UP2O7,-3.04669313817857
mp-19175,MnSe2O5,-1.491620001889824
mp-973788,Ho2CuTc,-0.137742335098682
mp-977398,TbCdAg2,-0.27177375999999803
mp-16956,Na3Sc2(PO4)3,-3.072143810403324
mp-318,SrIr2,-0.33007115833333
mp-686617,Nd10Si10N17ClO9,-2.243158480851064
mp-29007,P4(SO2)3,-1.741328809697801
mp-567490,Hf5Re24,-0.258195181379311
mp-619032,PbCN2,0.003456346874997
mp-631506,SrZrCo,1.048716999444444
mp-775006,Mn2CrO6,-1.813018519540231
mp-669474,RbTeNO3F4,-1.952897032916666
mp-555514,OsOF5,-2.000467333928573
mp-760650,Li3Bi(PO4)2,-2.546267831734694
mp-642824,SF6,-1.8514800670684521
mp-6997,Sb2Te,-0.20410161111110803
mp-30799,NdTlPd,-0.6435299880555541
mp-568284,SrI2,-1.961197940833329
mp-754172,La3Ti2N3O4,-2.809993341388889
mp-776235,Zr2N2O,-2.2478296700000002
mp-559219,Zr(PO3)4,-2.841566369989497
mp-976187,Pr(Al2Fe)4,-0.396776309358982
mp-865026,Mn2VSi,-0.45783600099137906
mp-764514,LiFe2(BO3)2,-2.261332115151515
mp-17848,Nb3Si,-0.46922024437499804
mp-19212,Rb2MoO4,-2.1996417928571432
mp-9225,ScSiPt,-1.167159453333333
mp-973681,LuRhO3,-1.888489400333333
mp-569894,La4B4Cl5,-1.737931922820511
mp-9952,Hf5ZnSb3,-0.554143701666665
mp-4413,Th(SiRh)2,-1.143618434000001
mp-8346,Lu2Ge2O7,-3.090631562803037
mp-2152,YNi5,-0.311606001666666
mp-865797,LuCo2Sn,-0.32021868541666704
mp-23517,RbPbI3,-1.235946820000001
mp-554200,Sr2YCu3(PbO4)2,-2.053959336249999
mp-654301,Nb5P7O30,-2.86010181577381
mp-721246,Sr6CoC2N7,-0.8546266015625
mp-642644,V2H,-0.170592549583335
mp-23771,SmH3(CO2)3,-1.7547279225961532
mp-694534,LiFeP2O7,-2.387470372056276
mp-867124,La2ZnIr,-0.49148192500000004
mp-7716,SbTe,-0.313456998333332
mp-759734,Li3Bi2(PO4)3,-2.459954231821429
mp-757808,Sb(PO3)4,-2.357274569915966
mp-13673,NaSiAu3,-0.304091855999996
mp-31940,LiMnPO4,-2.609225088701031
mp-849466,Mn3O5F,-1.943454782088122
mp-504576,OsOF5,-1.999624884285714
mp-863430,Zn3In2O6,-1.847204738939393
mp-19383,Ti4Mn(PO4)6,-2.991900896832042
mp-974387,Nd2AgHg,-0.41505135187500003
mp-31418,La(SbO3)3,-2.311320759615384
mp-8628,Te4Pt3,-0.43302517714285405
mp-9872,K4BeP2,-0.36003767618367205
mp-17088,KBaPS4,-1.4694124713418342
mp-560964,K3Sm(AsS4)2,-1.188999424410713
mp-2056,Ni3Se2,-0.286681585625001
mp-31423,Ho3(CuSi)4,-0.6841016795454541
mp-19727,PbCN2,0.037617892499998
mp-708984,NaH5CO4,-1.384700558193573
mp-10781,RbGdSe2,-1.9765518055468752
mp-771196,Li8Mn12Ni4O31,-1.9304366837607092
mp-699346,LiCo2(PO3)5,-2.344763235502069
mp-24239,K(BH)6,-0.40851472855769205
mp-19992,La6UO12,-3.939659098421054
mp-29877,K2ReH9,-0.32509718767361
mp-25262,TiO2,-3.322823818611111
mp-29775,Sr4PdO6,-2.581484783181816
mp-776057,TiCr2Ni3(PO4)6,-2.360684617533069
mp-695946,NiH16C4S4(N4Cl)2,-0.45052269200000006
mp-752699,LiAgF3,-2.013326686833335
mp-2837,PrCo5,0.022624767300295
mp-782720,LiTiV3O8,-2.635220453589744
mp-1020724,Na7Al4P9O32,-2.851050432239248
mp-850103,Li4V5(FeO6)2,-2.265391205579711
mp-774185,Mn6OF11,-2.829641013477013
mp-631548,Tl2SiNi,0.638950250833332
mp-11466,NaHg2,-0.264172991666669
mp-780849,LiMn2Cr2O8,-2.008132852053492
mp-680189,Y21B7(C7I9)2,-1.006701331736111
mp-768121,NaSbPCO7,-2.099855689638378
mp-1007657,HfRu3,-0.261035368749997
mp-555893,Pr3CuSiS7,-1.840018362708332
mp-10802,RbAs,-0.41755719312500006
mp-770383,Li2Cr2(SO4)3,-2.083754239166666
mp-2524,NdGa2,-0.814071495833331
mp-9036,KSmTe2,-1.6781963459375
mp-6408,ZnCu2GeS4,-0.6985897668749991
mp-4846,MnSbRh,-0.367694117637933
mp-760863,Na4Ti7O16,-3.14308654217965
mp-22250,Mg2SiB2Ir5,-0.599597653333331
mp-560891,SnP2Cl8O3,-1.68112488637755
mp-10342,Tm6ReO12,-3.681282751710513
mp-1008728,Ni,0.11925923000000001
mp-8627,SmBO3,-3.488289486333333
mp-850989,V2(OF)3,-2.645079346250001
mp-20924,U(FeSi)2,-0.49411735799999607
mp-2121,ScAl3,-0.479127356249999
mp-849990,LiMn2(BO3)2,-2.424624844320793
mp-6073,Mg3Al2(SiO4)3,-3.253374418499999
mp-775179,MnCo3(PO4)4,-2.139520517770935
mp-865183,MgGaAg2,-0.141955728958331
mp-556962,Pr3CuGeS7,-1.750185992291665
mp-781016,Li14Fe4O13,-1.923849786182795
mp-772422,Na6Fe2B4PO16,-2.272439572916737
mp-865092,MgGaNi2,-0.32843188312499905
mp-865186,MgGaIr2,-0.457590178124999
mp-559875,K3Na2LiTeO6,-1.8317399772698941
mp-30975,Na3BO3,-2.258836155472085
mp-32565,Tb4H9,-0.7731245506730771
mp-975780,Li2TlSn,-0.28046128625
mp-560324,Rb3Hg2S3ClO12,-1.860771921190476
mp-24029,Na2H10SO5,-1.268523992375477
mp-756163,Li2Cu4S3,-0.6713005449074071
mp-556480,Ti3O5,-3.373945726875001
mp-31109,Ho12InPt7,-1.013785860833325
mp-505113,TiSn6F16,-2.83530745557971
mp-754502,SmYO2,-3.1839257087500012
mp-755613,LiTiO4F3,-2.179245595185184
mp-778827,LiMn2(BO3)2,-2.425864000002612
mp-558407,In2Si(AgS3)2,-0.6054926228977341
mp-569862,Rb4P2Se9,-0.9451267643586331
mp-761322,LiNiBO3,-2.199099376666667
mp-18285,PrCo9Si4,-0.436780484761905
mp-754727,LiNiS2,-0.871787858333332
mp-13206,PrZnPO,-1.97574612407738
mp-568580,Na10(Ga2Sn)3,-0.18339408783121502
mp-570469,Pr5Tl3,-0.443211939791666
mp-866046,Ti3In,-0.12506459416666502
mp-865848,LuInAg2,-0.37486431666666303
mp-30540,V(NiP4)4,-0.307616877823128
mp-20763,Na2Gd2Ti3O10,-3.333433521926978
mp-707463,KNaReH9,-0.31504203750000004
mp-558717,LiUAsO6,-2.6996316459259253
mp-14796,KPt2Se3,-0.8762813707135411
mp-762692,Li5Fe11O16,-1.7287216761458342
mp-973877,PaBO3,-2.231474644833333
mp-542919,NaGe2(PO4)3,-2.477459963628215
mp-974747,MnCu3,0.09274921801724101
mp-754004,TmHO2,-3.033667235312501
mp-553891,Mg2BP3(H3O7)2,-2.340186558772894
mp-770371,Li4Ti3Mn2Fe3O16,-2.436691187828407
mp-777531,Ti3Nb2Cr3O16,-2.850499548750001
mp-771397,Li4Ti3Mn2Ni3O16,-2.047942308542692
mp-982773,Na3Tl,-0.08065225499999801
mp-569251,Lu7Sb3,-0.768250803916657
mp-556425,SbF4,-2.658436449250035
mp-31204,Nd(SiAg)2,-0.46864545549999803
mp-976412,Li3Zn,-0.08239870874999901
mp-698068,SnPH5NO4F,-1.642893617376373
mp-972514,SmTa3,0.48052857625000206
mp-554917,LiSn2(PO4)3,-2.528996888181216
mp-770870,MnTlO3,-1.5034413772528752
mp-556163,Zn2SiO4,-2.421369859999999
mp-675668,Yb(PrS2)2,-2.253799032083333
mp-540554,NaH5SO4,-1.410845710693573
mp-570832,SrPt5,-0.6072094099999951
mp-977182,NaNb3,0.740278413362069
mp-624691,VAgO3,-1.731810440833332
mp-21313,Mn3GaC,-0.11966750025862101
mp-571552,Lu(CoGe)2,-0.571077171333332
mp-5739,U2SN2,-1.9371676640624962
mp-770865,Mn3SnO8,-1.7925034626077592
mp-770649,Li5NbO5,-2.542197748333332
mp-674947,Zr2N2O,-2.335520416749998
mp-18946,VBO3,-2.726639265833333
mp-10320,La2MgRhO6,-2.943168876
mp-552537,Sr2CuBrO2,-2.411228150833334
mp-600015,SiO2,-3.253618028888889
mp-20490,NdNiSn,-0.6245261483333301
mp-554935,Pr8Sb2S15,-1.993167136533331
mp-38931,Tb2SmS4,-2.285963022619046
mp-778866,Li4Mn3Fe(BO3)4,-2.463324628908045
mp-1020009,Li2Ca2Si2O7,-3.192593183846154
mp-29364,Li5SbO5,-2.198206253787879
mp-558760,SrZrS3,-2.084204747999996
mp-775808,MgO,-2.9062285433333352
mp-2116,ZrMn2,-0.187415235287356
mp-20740,Tl4Te3Pb,-0.48408583479166906
mp-676552,Nd2Th8O19,-4.241046604137929
mp-775155,Li4FeOF5,-2.780713832727273
mp-734561,Rb3P3(HO3)4,-2.185692697337662
mp-13327,NdLuSe3,-2.18705656127083
mp-760512,LiCuCO3,-1.648187033888889
mp-12659,Mn2Nb,-0.08144218882183901
mp-13495,ZrPd,-0.6931005650000011
mp-758393,Li3Ti2(PO4)3,-2.8340159595297623
mp-557979,MnTl2As2S5,-0.560881206209771
mp-14556,SmCd(BO2)5,-2.891336621225489
mp-1019324,TbTe2,-1.363800455000003
mp-2858,ZrO2,-3.813617754999999
mp-22930,Rb4CdCl6,-2.063121788636363
mp-652364,PNCl2,-0.9679972134107131
mp-17685,Li3GaGeO5,-2.35187583725
mp-980194,TiI,-0.080128371666667
mp-11419,ThGa2,-0.7396896699999991
mp-865907,LiZn3,-0.164604937916667
mp-11625,KCa(PO3)3,-2.893328516155612
mp-980110,Th(NiSn)2,-0.5230223189999941
mp-6332,Li2TiSiO5,-3.102775733333333
mp-7099,NdB2Ru3,-0.47130799791666306
mp-1832,LaPt5,-0.849367524166666
mp-8894,U2Al3C4,-0.16949308833333201
mp-756168,Li2Nb4O11,-2.890843850098038
mp-9912,Li2CeP2,-1.146139635857143
mp-768982,Li7NbS6,-1.3757060766666651
mp-556331,Sr4Pt4PbO11,-1.963278883749999
mp-29473,LiIO4,-1.117783785138889
mp-973450,Hg3C,1.522942341875001
mp-772423,Ni(SO4)2,-1.44779322651515
mp-780881,Li4Mn3Cr3O12,-2.399758454414838
mp-754885,SrCaI4,-1.8837521941666662
mp-704198,LiMo2P3O13,-2.405083329197995
mp-776271,Zr2N2O,-2.254939474333333
mp-10891,MnAlPd2,-0.593034279482758
mp-761676,Li2Co3SbO8,-1.739238456190475
mp-19240,ErCrO4,-2.784355649999998
mp-5549,MgSnAu,-0.434026843333333
mp-759877,Li4CuF7,-2.665654211527782
mp-556450,PrB2ClO4,-3.091260808124999
mp-16734,SmNiAs,-1.036178380833333
mp-15910,Re2SbO6,-1.922507882222223
mp-6662,NaSr3IrO6,-2.4649874742163
mp-754549,Na2CuO2,-1.329767022551723
mp-27352,Sr(Ag3O2)2,-0.8542381654545431
mp-999378,NbNi3,-0.120857319999999
mp-10744,Si3Pt2,-0.5443171599999971
mp-10608,Y3SnC,-0.631686528000001
mp-707540,ZrP2(HO4)2,-2.687463948406593
mp-769572,LiAlVO4,-2.752623094761904
mp-16137,K4CaU3O12,-3.2736511924499982
mp-22246,EuTiO3,-3.549383762166668
mp-755368,Zr2N2O,-2.279117853666667
mp-866651,KSiBiS4,-0.91117355607143
mp-780454,SrCa2I6,-1.8798213155555552
mp-12007,HoCdCu4,-0.23912325583333402
mp-14190,NdPO4,-3.416609378412696
mp-567859,Sm(FeSi)2,-0.6203122010000001
mp-771364,Li6CrSn3(PO4)6,-2.498614229571429
mp-30177,Y(Al2Cr)4,-0.21133907076923
mp-30192,Pr4Se3O4,-3.104685029427083
mp-674492,Na2U2O7,-3.269676385250783
mp-5678,ErB2Rh3,-0.708032856388887
mp-770365,LiAlVO4,-2.771744499761904
mp-753122,Sr2CuH2(SeO3)4,-1.656260249136905
mp-705884,LiFePHO5,-2.237572785747354
mp-865897,Li2AcIn,-0.340779062708332
mp-555003,WF6,-2.809382193571428
mp-9454,Sr3MgIrO6,-2.638658644999999
mp-18740,V2Cd2O7,-2.076633188636363
mp-754182,TbZr4O10,-3.638120211111109
mp-28464,Re3(TeI)7,-0.487733632009805
mp-20390,PrSnPt,-1.025074514444445
mp-762702,Li3Ti2(FeO4)2,-2.555079181777778
mp-773179,Li2TiCo3O8,-1.9663102728571422
mp-976417,Nd3Hg,-0.23436563171874503
mp-29077,LiBiO3,-1.6352989334166672
mp-1018062,FeSnRh2,-0.301023718749998
mp-977391,LiNd2Os,-0.114770347916664
mp-3928,Na5P3O10,-2.615129535045853
mp-15844,TaPO5,-3.059142646710885
mp-10956,LaAsRh,-1.152869879166664
mp-763241,Li3Cr2P2(CO7)2,-2.324397854751551
mp-22325,P2Pb2O7,-2.417288511298698
mp-972415,YErAl2,-0.43156057333333503
mp-553982,K4In2Si8O21,-2.933491108495237
mp-772799,K2SnPCO7,-2.230248906595237
mp-766021,KH(IO3)2,-1.149997836599999
mp-3758,Eu(NiP)2,-0.8826390088571431
mp-769551,V9PO25,-2.277825972561226
mp-680756,Na4TiP2O9,-2.783534966946018
mp-8146,SrPuO4,-3.139326443124989
mp-1019802,KAl(PO3)4,-2.796808548378968
mp-773176,Li2CrAsCO7,-2.094026570347222
mp-763338,V3O5F,-2.583167057777776
mp-770507,Li4Ti3Mn3(NiO8)2,-2.395884423111659
mp-961710,VSiPt,-0.43040730333333305
mp-764934,Na(NiO2)2,-1.120772185197043
mp-19891,Pu2C3,-0.28472294399999704
mp-555457,Te2S(O2F3)2,-2.137926823333333
mp-862664,Rb2Zr2O5,-3.013763015555556
mp-31055,Sc3InN,-1.190039605333334
mp-9821,RbSbF6,-2.907923034687501
mp-35033,ZnFe5O8,-1.684544337142855
mp-971966,Zn3Sb,0.24025868124999902
mp-505341,Ni2W3N,-0.17336824520833202
mp-555746,InAg3(PO4)2,-1.854770775782311
mp-780232,Hf2N2O,-2.528494852999999
mp-505820,NiPS,-0.5198952182142871
mp-21099,K2Pb(SO4)2,-2.117876546884615
mp-546625,HoBi2BrO4,-2.418701072499999
mp-778338,Li4V2Co3Sn3O16,-1.980107967083333
mp-775024,MnNi3(PO4)4,-2.063426344854269
mp-764336,Li4Mn3OF8,-2.849974110549569
mp-722266,Na2GeH16Se3O8,-1.201323937076329
mp-972623,SmHgAu2,-0.589171169374998
mp-540256,NiPO4,-1.888118659107143
mp-757583,Li2TiCuO4,-2.37520178125
mp-770598,Li2CoH8(CO5)2,-1.590939380724637
mp-975578,Li2SnHg,-0.338322271041668
mp-557508,NaLaH2S2O9,-2.29281760325862
mp-865123,MgGaPd2,-0.710474510624998
mp-861875,LiHf2Re,-0.206355308958332
mp-16031,Sn3N4,0.052327968571428005
mp-11893,K2Pd(CN)4,-0.190903453219694
mp-20907,La2InRh2,-0.724250980333334
mp-3340,TaAlCo2,-0.46454584183332703
mp-763793,Li2Mn3F8,-2.970019945035367
mp-7205,LiInSiO4,-2.652957972499999
mp-569759,Zn5(BRh2)4,-0.421901459803921
mp-705314,Li3V3P8O29,-2.523005643654484
mp-972970,ScSiRh2,-0.929153363749999
mp-976125,PrGaAu2,-0.597683749791666
mp-5519,HoGeAu,-0.816435929999996
mp-16518,TmAl4Ni,-0.535107126666667
mp-754893,U4O7,-3.52169336272727
mp-977112,NaSrO3,-1.303110013275862
mp-761990,LiNiPO4,-2.262935451853741
mp-769565,Na2VPCO7,-2.425082485200122
mp-3576,HfGaCo2,-0.4638731675
mp-2607,UGe3,-0.30072251125000005
mp-558026,SbSe(IF2)3,-1.8228464538494311
mp-3954,PrPS4,-1.2535913426488081
mp-780297,Li3Mn2Fe(BO3)3,-2.449335497964558
mp-14854,Sr2LiIn(B2O5)2,-2.8953510199537043
mp-771389,Li2V3BiO8,-2.293635327976191
mp-768745,HfP2O7,-3.195483319178573
mp-3736,ZrAlCu2,-0.352965232499999
mp-763252,LiSbWO6,-2.066465773703703
mp-21316,TaSiIr,-0.87922093577778
mp-560300,Nd3CuSnS7,-1.731557277916665
mp-17256,Rb2Hf3OF12,-3.9629965722222202
mp-765472,KTi6O12,-3.390186621171052
mp-866073,MgSnRh2,-0.6325345399999991
mp-568711,VPd3,-0.266354059999997
mp-754344,LiZnO2,-1.629533893333333
mp-780896,MnCr(PO4)2,-2.435814996712506
mp-542996,Ta6Fe16Si7,-0.44379364944827304
mp-776068,LiVCrO4,-2.397623897619048
mp-19428,K2RbTbV2O8,-2.7278107384761903
mp-865076,NaCd2Pt,-0.23080864784482802
mp-972949,LaSmZn2,-0.31567576750000004
mp-557798,K5Li2NdF10,-3.331231379467592
mp-667305,ReN(OF2)3,-1.893829890795455
mp-557403,LiFe2F6,-2.753536442592592
mp-28235,Tl(CuO)2,-0.8302822606666691
mp-541381,Pu(SiAu)2,-0.136850561083338
mp-707470,Na2H4(SO4)3,-1.7825204544170772
mp-756354,SrSc2O4,-3.711832489285714
mp-552738,TmBi2IO4,-2.336686201875002
mp-705356,Li2Fe(PO3)5,-2.547096333690476
mp-643023,Mg2H4Ru,-0.32130957571428603
mp-867222,LiCa2Ir,-0.23301754666666502
mp-19075,K2SrV4O12,-2.564325975236843
mp-21479,LaIn5Rh,-0.45144766690476
mp-770685,Li4Mn3Ni3(SbO8)2,-1.8736068220402302
mp-558350,Zn2TeBr2O3,-1.509473885989582
mp-557696,Na5Y4Si4O16F,-3.299521337729885
mp-616900,Zn(InS2)2,-0.7363085132397931
mp-35799,Hf2Bi2O7,-2.9424936049999912
mp-19342,WO3,-2.184668538125
mp-865203,YCuPbS3,-1.345554992083332
mp-998612,KGeBr3,-1.387192021450002
mp-30214,SbIF10,-2.275143939583333
mp-781009,Li3Cr(PO4)2,-2.613680337091836
mp-775130,Li2CrO3,-2.204183759444445
mp-675042,Mg2TiO,-0.861567529583333
mp-17838,KTb3F10,-4.291982605160713
mp-2707,USb2,-0.514500249999997
mp-5700,Sr2Cu3O5,-1.7871893305
mp-972662,Sm2Fe17C3,0.170169405227272
mp-723540,K6BiH3(Cl2F)4,-2.110847523056819
mp-3666,LiTaO3,-3.125358770133336
mp-19970,Li3CuO3,-1.78138969642857
mp-645272,TlV3(SeO6)2,-1.8642452621122692
mp-971758,ZnNi3,-0.11347345499999902
mp-4395,TbScGe,-0.842730058333332
mp-30962,K4Ge9O20,-2.17915325890909
mp-643009,SrMgH4,-0.49046991583333305
mp-695887,K3Cu2P4HO14,-2.3181469421488092
mp-12737,YB2Rh2C,-0.58128829888889
mp-555953,Na2Cu2Si4H4O13,-2.240989840910345
mp-9366,RbHoS2,-2.093715566874999
mp-12586,SmCu,-0.184469244999998
mp-864761,Ta2MnOs,-0.27911142228735003
mp-13094,YAl2Ni,-0.63966266625
mp-698063,Na2P2H2O7,-2.338663634964948
mp-571490,Pr3CCl5,-2.156232924722222
mp-669,ThAl2,-0.509280889999999
mp-768469,TmGaO3,-3.20338826316667
mp-28974,TiF4,-3.686185758666666
mp-978927,SmEr3,0.019492903749998
mp-769536,Na5Mn2P2(CO7)2,-2.335632672081773
mp-973603,Lu2ZnPd,-0.6596680758333311
mp-554212,Tl2Ni3S2,-0.418602075952384
mp-10430,Nb5(NiP)4,-0.848276335274726
mp-707985,K3Na3TeP6(HO4)6,-2.2036497833235282
mp-29667,Si2Ni3,-0.499238612499999
mp-30216,K2ReI6,-0.893170333
mp-862586,Re3Pd,-0.057446953124994
mp-1019360,ThPSe,-1.6265200440128922
mp-9379,Sr(SnAs)2,-0.6243184570000011
mp-753130,Li4CuF7,-2.619137209027782
mp-21061,GdSbPd,-1.15237022333333
mp-2439,ZrNi5,-0.31996686166666505
mp-685097,HfO2,-3.997831573333329
mp-23058,NdClO,-3.471199014166668
mp-776362,Zr2N2O,-2.331223455249997
mp-19517,KVPO5,-2.581536301017856
mp-559571,ZrB2O5,-3.192974700729166
mp-775252,Li8Mn3Fe5(BO3)8,-2.397356337370689
mp-570535,NiH20(C4N5)2,-0.23485643794871802
mp-29331,KH3F4,-2.188447753875
mp-5714,TmCo3B2,-0.51652093138889
mp-562387,Li6Tb2O7,-2.503490972222221
mp-650124,K2Rb2Re6S13,-1.042061644869565
mp-781617,Li5Mn6(BO3)6,-2.477893662835796
mp-774423,V3Cu(PO4)6,-2.369211261995797
mp-777665,Li2FeF4,-2.844518507738095
mp-12018,NdAl4Ge2Au,-0.4444772496875
mp-558475,K4Nb2S10O,-1.365128674205881
mp-505489,Sc7BCl12,-2.049349638375
mp-22331,NdTiGe,-0.7431613880555541
mp-24413,Na2LiAlH6,-0.316796481859194
mp-698317,NdH4C3O8,-1.839665506328125
mp-541331,Sr2PrGaCu2O7,-2.4550767803205122
mp-704577,Na2Co2(B4O7)3,-2.617116390344828
mp-4755,Sc3Fe2Si3,-0.725480008124999
mp-17512,Zn(AuF4)2,-1.536380692272729
mp-675511,Sm2PbS4,-1.872204012142856
mp-27437,Zr(IO3)4,-1.329971505588236
mp-978662,Sc6Al16Ir7,-0.8709456475862061
mp-973396,KBeO3,-1.19330633545
mp-8230,Zn(PO3)2,-2.502442132420636
mp-720856,KCa(H2N)3,-0.6008382749999991
mp-20526,PbS,-0.7255920062499981
mp-23950,K(BH)3,-0.331861284232143
mp-643063,NbSe2,-0.958146983541666
mp-558192,NaPO3,-2.637670223371102
mp-17757,Sr5Ge3,-0.6359593937499991
mp-20888,TmGeRu,-0.7349439133333361
mp-8257,Na2ZnS2,-1.164517224125
mp-531778,Mg17(As3O16)2,-2.6258486485454533
mp-38975,PNO,-1.4407675537698421
mp-541141,K3IrCl6,-1.584397159124999
mp-764872,Li5Fe7O3F13,-2.505003109880952
mp-862794,K2Pu2O5,-2.788405569666666
mp-778306,Na4Fe2C4SO16,-1.9227412769636012
mp-568574,LaGeI,-1.263786938333314
mp-1020057,LiLaO2,-3.172525210208333
mp-626647,TlHO,-1.0139294431944461
mp-13002,K2SiF6,-3.428395247722219
mp-559377,IOF3,-1.647007456999999
mp-766429,SiH18C2N8(OF3)2,-1.105233896554053
mp-567341,PrCoC2,-0.28509603916666504
mp-4026,KCrS2,-1.1814435205624991
mp-1459,TaN,-1.33806432304167
mp-865238,Lu2MgAl,-0.234523757083333
mp-14017,K3Sb,-0.5482814765625
mp-27111,Li3Sb3(PO4)4,-2.431276699304029
mp-978269,MgZn2,-0.12303470999999801
mp-975834,MoRu3,-0.05181358875000001
mp-641621,U4Ga12Co,-0.370751324705876
mp-26745,LiSbP2O7,-2.476732807056277
mp-759684,Na3Bi(P2O7)2,-2.371938219441334
mp-554336,NbAg2(PS4)2,-0.6794727394322341