material_id,formula,formation_energy
mp-4354,Tl(NiSe)2,-0.308835672024997
mp-764727,Li8NiO5F,-2.026317759777778
mp-3667,P2S2O3,-1.6723136198979591
mp-2252,ScB2,-0.8867963533333341
mp-27350,U(BH4)4,-0.20180202440476103
mp-999054,Ti2GaCo,-0.264302466041667
mp-18707,Mg3Pt,-0.5617630770833331
mp-754822,Li4Ti3Sn5O16,-2.4629035938690462
mp-14515,NaNd(GaS2)4,-1.308910868491378
mp-2530,Li2Te,-1.178086924444443
mp-697753,Li3Cr2(PO4)3,-2.643359378946427
mp-18706,Y5(FeTe)2,-0.724851367037036
mp-865464,PmSi3,-0.264846778124999
mp-864631,LiNbRh2,-0.442245220833333
mp-1989,Ta5Si3,-0.655007507083333
mp-559878,K2Na2IrO4,-1.5597593213620682
mp-675941,Li7IN2,-0.661041414833333
mp-541823,TlCr5S8,-0.972783299523795
mp-19921,PbO,-1.469972337031249
mp-11793,SmCuSe2,-1.44437593328125
mp-556467,Rb4Nb2S10O,-1.377173165441176
mp-13620,ScSi7Ir3,-0.644462975
mp-510582,NdNiSnH2,-0.598921291999999
mp-19789,Mn(BW)2,-0.435409943896553
mp-761341,TiVO4,-2.960710096805556
mp-559715,Li2Cd(PO3)4,-2.570812091854635
mp-33325,Mg(FeO2)2,-2.0596971375
mp-2013,HoTl3,-0.27222344875000404
mp-850305,SrCaI4,-1.8387244225
mp-28584,Tl2CuI3,-0.6850442481944461
mp-554018,Mg3BeAl8O16,-3.346943954464286
mp-18774,NaFeP2O7,-2.501590272333182
mp-768074,LiTaWO6,-2.660248955907407
mp-776731,Na3Li3Fe2P2(CO7)2,-2.29442967993937
mp-865736,YbBiPd2,-0.7594079274999991
mp-775925,Li8Sb7S19,-0.804739591740195
mp-18820,Sr3Fe2O7,-2.392676926249999
mp-644504,NdMg2Ag,-0.101489907291665
mp-626293,Sr(H8O5)2,-1.377353289814814
mp-865031,Mg2ZnB2Ir5,-0.454251990333333
mp-622565,Ho3Co,-0.15299160187499602
mp-777664,Li2FeF4,-2.853073662380952
mp-1294,YCo2,-0.14596481
mp-757671,Li3Ti2(PO4)3,-2.8624680217797622
mp-769050,Li2NbS3,-1.398772947361109
mp-761910,Li3Cu2F8,-2.398615668461561
mp-22744,Ta11(NiSe4)2,-0.746391374019842
mp-545359,KNa2CuO2,-1.3349603116681021
mp-674506,NdPb7F17,-2.812732084033346
mp-540619,K3SnTe3,-1.00247924453571
mp-767798,Ni17(AsO4)12,-1.4918817540259741
mp-5977,Nd2Zr2O7,-3.842356440454542
mp-675680,Sr(SbO3)2,-2.240895431666667
mp-607225,Mn2Ga5,-0.145956428423644
mp-28947,NaSn2Cl5,-1.311803290625
mp-850750,LiV2P4(HO8)2,-2.40156096337619
mp-2142,Te2Os,-0.15907392166667
mp-29251,Te6Br2O11,-1.396229981578947
mp-720825,NaPH4O5,-1.877897946002015
mp-38099,Rb4Cl2O,-1.734900452857143
mp-790064,V5Co(PO4)6,-2.511485572440474
mp-758855,LiZnBO3,-2.398616829583333
mp-771061,MnFeBO4,-2.186021626013957
mp-22416,SmTiO3,-3.591573494666667
mp-775256,Li4MnV3(P2O7)4,-2.6918004576910732
mp-31169,ScAlAg2,-0.328348003749999
mp-707940,ZrCd2H12(O3F4)2,-2.004998252586207
mp-684508,LiSb2(PO4)3,-2.379534400403438
mp-7505,K2P2Pd,-0.516321371757141
mp-982880,Pm3Y,0.042442256874998
mp-277,Zr3N4,-1.852383193928572
mp-971951,Zr3Pt,-0.49139677500000506
mp-775823,Zr2N2O,-2.332595319249998
mp-776016,K2O,-1.213456732749999
mp-983426,PmDyCu2,-0.207095523125001
mp-1595,Nb2O5,-3.026667726428572
mp-20648,V2C,-0.5392330508333341
mp-861644,ThCdPt2,-0.837553319999997
mp-21505,YAgPb,-0.501053014999999
mp-5447,Sm3OsO7,-3.134779229090907
mp-543052,Tm5Sb3,-1.001502667500002
mp-31207,Zr5GaSn3,-0.7329385233333341
mp-12505,LuAgSn,-0.5783277172222221
mp-31102,Tb3ReO7,-3.344088259318181
mp-762067,Li4Ti3V3(SbO8)2,-2.655216414761905
mp-4578,Sr2GeS4,-1.684846761428569
mp-560450,Sb2SNF11,-2.205997224
mp-567290,LaN,-1.558962584374999
mp-977362,ZnGaRh2,-0.616016989374998
mp-21379,SmInIr,-0.80019506777778
mp-981376,ScSnO3,-2.270678536999999
mp-11660,Hf3N4,-1.9047627092857131
mp-21520,NaCeP2O7,-3.058782293469546
mp-24712,PH5NO3F,-1.5973747262175322
mp-10847,NiSbSe,-0.308435679687498
mp-780075,Hf2N2O,-2.533541398749999
mp-541010,Li2Ni12P7,-0.601657130436507
mp-559521,InBi2S4Cl,-0.842193859583332
mp-862906,PmGaCu2,-0.305898774375
mp-14005,KRuO4,-1.577094787874999
mp-568419,Mg3Ir,-0.321415998333331
mp-29662,TlBiSe2,-0.5126263132812451
mp-17114,Nd2Sn2O7,-2.97475702772727
mp-567156,Pr(Al4Co)2,-0.452534379696969
mp-998985,TiAu,-0.47585178333333605
mp-51,Li,0.001672373333333
mp-764465,LiFe2(BO3)2,-2.273505156742423
mp-697305,K2Na5Al7Si5O24,-3.000122484102245
mp-3886,Zr2AlC,-0.752960486250001
mp-972327,Zr2CoOs,-0.531107747499998
mp-355,Nd5Si4,-0.766747224999998
mp-14260,ZnAg(PO3)3,-2.304116618435373
mp-769504,Na2NiPCO7,-2.076643674575122
mp-29458,Rb3Mo2Cl9,-1.778058317321429
mp-571135,La3BCCl3,-1.679717358020833
mp-21201,LaGa3Pd2,-0.806249142499998
mp-27310,Na4Sn3F10,-2.687418471470587
mp-981211,ZnIn3,0.09933025375000001
mp-565711,P2O2F3,-2.507621700136053
mp-7497,ThSi2,-0.629868999999999
mp-26,La,0.0
mp-973539,LuAl3,-0.428662650416663
mp-8676,Tl(CuS)2,-0.45361788966666805
mp-560068,Na3NO4,-1.3770575122359912
mp-695396,Na3SrTiNb3O12,-2.985742559873563
mp-773242,Li3V3CoO8,-2.269081867333332
mp-863656,PmH,-0.48860257062500106
mp-680400,K3Ta2S11,-1.190392673526041
mp-3539,NbGaNi2,-0.333681539374999
mp-764661,Li3CoNi3O8,-1.372034461000001
mp-756142,La2Th5O13,-4.21308501175
mp-865812,LiSmHg2,-0.517503625416672
mp-998786,TlPdF3,-1.592664701999999
mp-721217,K2P2H2O7,-2.348626270291208
mp-571582,TlHg3Sb2Br3,-0.619850336481484
mp-40161,NaHf2(PO4)3,-3.250018321128214
mp-753766,Ho6ReO12,-3.637388602236824
mp-23097,K2Os(Cl2O)2,-1.4264708471666672
mp-1018055,HfIr,-0.9288918700000011
mp-1008832,HfC,-0.359463005000002
mp-972494,SmMg3,-0.05176057124999701
mp-18344,Ta2Tl4S11,-0.8923897741470591
mp-684817,K2LiTa6(PO8)3,-3.122564722660053
mp-29720,Li21Si5,-0.20803175894230702
mp-777567,LiFeF4,-2.726254751388888
mp-704942,Li2Cr(PO3)5,-2.611828072603519
mp-558135,Ti4S8Cl6O,-1.739123310964912
mp-770173,Mg2Mn3O8,-2.193256119137931
mp-971819,YLuIn2,-0.5489967316666651
mp-9381,Zr6FeTe2,-0.622619307037035
mp-865919,MgAlAg2,-0.167760192083331
mp-84,Sn,0.12017831000000001
mp-23046,SrIF,-3.123103805000002
mp-933,YAs,-1.818117546249999
mp-10816,NdAgAs2,-0.890194894375
mp-780855,Fe4O7F,-1.452898509583333
mp-555507,Sr10Al2ClF25,-4.103373948026316
mp-13,Fe,0.0
mp-768665,LiBiB2O5,-2.394983023518518
mp-707491,Re6H12Pb3C2S2(N2O13)2,-1.5218550634545451
mp-706631,Na2B3HO6,-2.529860725854885
mp-772273,Li2MnH4(SO5)2,-1.851524901031457
mp-862761,PrBiAu2,-0.609635062916666
mp-768368,K4I2O,-1.525181681999999
mp-865461,LuZrCo2,-0.28186188166666604
mp-999200,Si,0.11663319999999901
mp-774465,LiMn(SO4)2,-1.9941205205220291
mp-558332,K5Au(IO)2,-1.368802641624999
mp-21171,MnGaCo2,-0.23019723135775802
mp-23956,K2MgH4,-0.335866962071428
mp-8392,Sc3Si3Ni,-0.8329297042857121
mp-770426,Ho(ClO4)3,-0.9650717843749991
mp-779893,DyP5O14,-2.8224980931190453
mp-781767,Li3Fe2(CuO4)2,-1.508177061999999
mp-631468,SrScBe,1.2909383233333331
mp-23963,HIO3,-0.897171053249999
mp-974341,RuRh3,0.045083864999998
mp-20575,Nd2InGe2,-0.8418688519999991
mp-569098,RbNa11(WN3)4,-0.5954277651847281
mp-8263,KNa2BO3,-2.257251484167899
mp-694952,Ti5Fe11O24,-2.3015886219166672
mp-698576,Ti3Fe5O12,-2.4337888755
mp-770707,Li2AlFeO4,-2.488819323333333
mp-30587,MgInCu4,-0.10344702527777601
mp-11904,LiSm2IrO6,-2.742124424333332
mp-7024,Tb2C3,-0.41229859299999905
mp-13265,ErAgSn,-0.544858579444438
mp-31380,SmPd,-0.8843563675
mp-772434,Li4CrO4,-2.178241171481481
mp-11526,TmNi5,-0.338314189999998
mp-771303,LiMnB2O5,-2.49773327134419
mp-754892,Rb3ClO,-1.552755477499999
mp-7748,NaAlO2,-2.864141727844827
mp-30094,H2CN2,-0.17720506725000001
mp-24761,RbGaBP2HO9,-2.552223135146852
mp-555850,LuSF,-3.289838426493053
mp-559243,Nd2Ta2Cl2O7,-3.436312331128205
mp-27258,P3Au2,-0.16322673278571
mp-685300,Ti4P8S29,-0.8577417551945391
mp-14638,Rb2LiGaF6,-3.089955832083333
mp-2186,NpAs,-1.3150603206250011
mp-769261,Na6Sn2C4SO16,-1.984698818992269
mp-625824,Sr(H8O5)2,-1.365458308148148
mp-4035,RbReO4,-2.354466757499994
mp-752438,Tl3(SbO3)8,-1.545544303142858
mp-867164,Pm3Sn,-0.516882788125002
mp-690516,Sr2Co2O5,-2.086185635
mp-10056,UCo3B2,-0.429198554722222
mp-11495,LuRu,-0.46846053833333506
mp-978498,Sc3Al,-0.23661352124999901
mp-863358,KAl11O17,-3.379337824560344
mp-861985,Er2IrRh,-0.9427768949999971
mp-671510,Sc3Re2Si3,-0.519866360625
mp-673145,LiCu4(PO4)3,-1.945430224863095
mp-274,Nb5Sb4,-0.360485693333332
mp-505249,Th(NiP)2,-1.02322308885714
mp-410,YbPt2,-1.212786765000004
mp-653697,Ta(CoTe)2,-0.476531130633331
mp-866658,H16RhN5(Cl2O)3,-0.821632654193549
mp-760513,La2UO6,-3.892252445555556
mp-23850,NaH2N,-0.43090218031250005
mp-9117,Sr2YTlCu2O7,-2.240519861410257
mp-560589,NbSe2SN2ClF6,-1.7649264143990382
mp-26725,LiSnPO4,-2.4353030218537413
mp-756654,SbOF,-2.117116111666666
mp-622602,NaMoAsO6,-1.917377008764368
mp-28982,Pd(PbCl3)2,-1.068089196111111
mp-865877,Ti2RePt,-0.7411143114583321
mp-11194,NdMgNi4,-0.32420300208332303
mp-865284,Tm2CdOs,-0.252832527500003
mp-757102,Sr2RhO4,-2.365510500357143
mp-632693,Zr5(In2Rh)2,-0.649981790909087
mp-638424,Sb2S2O9,-1.803163485769232
mp-770504,Li24MnCr11O36,-2.230359288582376
mp-13972,Sm2SeO2,-3.421144282468751
mp-676851,KNO3,-1.39276418345
mp-21527,Na2ScCuF7,-3.12456310674243
mp-15520,TbZn(BO2)5,-2.9283569619117653
mp-780342,Gd2Zr2O7,-3.7716163818181823
mp-631564,MgBe2B,0.694095131458333
mp-756888,La2(SiO3)3,-3.5578460950000013
mp-866640,LiMgH6Ir,-0.514580118703703
mp-1174,MgSc,-0.025009859999999003
mp-555251,SiO2,-3.255319074166665
mp-621131,Ti3Ag,0.11080614458333501
mp-558625,SrZr(PO4)2,-3.263935958273809
mp-2206,LuCo2,-0.24530916388888901
mp-31005,Zn3(PO4)2,-2.368701328791208
mp-755393,SrLaI5,-1.839677740714286
mp-767539,Li6SbS2,-1.115353087777777
mp-12448,LiSm2OsO6,-2.8429345188333333
mp-770632,Li3CrO4,-2.180159844375
mp-27786,SbAs2Cl13,-0.677861348593749
mp-775290,Li4Nb2Cr3Cu3O16,-2.125860550476191
mp-20608,Tb2In,-0.48901931666666504
mp-756755,Li3Nb3TeO12,-2.5807385061403503
mp-5788,NaUO3,-3.287362495775843
mp-977117,NaTeO3,-1.583567150609195
mp-30294,Sr2SnS4,-1.600842348749998
mp-972591,Sm(Mg4Al3)4,-0.053697312931033005
mp-6566,NaZnAsO4,-1.928433229601806
mp-865840,Ti2TcIr,-0.8466084554166671
mp-4283,LaSi2Pt,-1.10986965
mp-21459,InAgS2,-0.558551787656249
mp-10892,MnAlPt,-0.636539382643678
mp-555268,K2Sm2IrO7,-2.484167529541666
mp-19488,Rb2MnSO4F3,-2.5125184404937313
mp-758453,Na2P2H4N2O5,-1.699672515636289
mp-23553,GeBi2O5,-1.8393026121875
mp-1009130,MnN,-0.31152661661637904
mp-67,Sc,0.0
mp-669594,Pr5Ga3,-0.525225250104163
mp-867896,ScZnCu2,-0.255376168749999
mp-716723,V9O17,-2.4704152125
mp-779763,Tb2Ti2O7,-3.785560298636429
mp-849583,YNb2NO5,-2.961319315000002
mp-695843,SbH7(Br2O)3,-1.054866983308823
mp-570593,RbAg2(AsSe2)3,-0.5269207643663201
mp-7438,KZnSb,-0.5108005562499991
mp-541339,SrH9ClO5,-1.557557054765626
mp-4663,Yb2CdPd2,-0.8627220469999991
mp-756344,Li4ZrO4,-2.694441361481481
mp-722780,Pr2P3(HO2)5,-2.428419155425595
mp-11831,YbZnSn,-0.517021533333334
mp-27278,P(HO)4,-1.660930088849206
mp-21367,LaIn2Pd,-0.6605475833333331
mp-559065,NaI3O8,-1.016346651781611
mp-464,HoSe,-1.961464692031249
mp-697683,PH8N3O2,-0.9396968097959171
mp-29499,Re3Te8Cl3,-0.667473323630952
mp-775938,TiO2,-3.495808560833333
mp-555967,TaP4S4Cl5,-1.029706076493196
mp-1006059,Tl3Bi,-0.032464058750001
mp-42264,K2MnH4(Cl2O)2,-1.660481615187002
mp-34650,LiMn3O4,-2.049080435890804
mp-16932,Th2Co17,-0.061865569473683005
mp-574122,UAl4,-0.21038114499999902
mp-3523,SrGd2O4,-3.650157833571427
mp-754857,Nb2Ge2O7,-2.405872076363636
mp-757100,LiCoS2,-0.9553318420833331
mp-10417,KSbO2,-1.8814564380624992
mp-556819,Tl2Cd2(SO4)3,-1.777149837192983
mp-676449,Na4Al3Si3NO13,-2.791942698146552
mp-13954,Rb2GeF6,-3.046263905555553
mp-707334,K7P6H2NO22,-2.3953959722659772
mp-998749,KCaBr3,-2.214869202449999
mp-15805,Mn3ZnN,-0.45057511943965306
mp-756054,Zr2N2O,-2.226033121
mp-8511,PF5,-2.726831949662697
mp-768291,Hg(SbO3)2,-1.525035529722222
mp-27017,LiSnPO4,-2.464688698996598
mp-12627,Nb3S4,-1.386860086428572
mp-1004525,SmB12,-0.241017129230769
mp-504348,Li3Cu(PO4)2,-2.344803872091836
mp-22268,ZrPRu,-1.121293132380949
mp-28232,MgTi2O5,-3.422544152083334
mp-17569,SmPtF7,-2.914746472500001
mp-780137,Li3Mn4(BO3)4,-2.469464965364817
mp-22880,FeBr2,-0.7966675133333341
mp-1020010,Li2Ca3N6,-0.5937141645075751
mp-757303,Mg17(As3O16)2,-2.621758937636364
mp-1019094,PrGeAu,-0.8218377322222231
mp-556020,Li3AlF6,-3.4856473865
mp-707337,K3H3Pd,-0.19668798858928702
mp-556995,Nd2O3,-3.773280861666664
mp-767710,Li2VP2O7,-2.598236944246032
mp-4906,Te2SO7,-1.642124450583332
mp-644143,LaSb2Au,-0.8720730412500021
mp-22344,Sn7Ru3,-0.165497293500001
mp-22731,MnInNi2,-0.24933087744252802
mp-757457,LaNb3O9,-3.244713615
mp-675585,Ti7Co3N10,-1.155155292895833
mp-4093,Cu3(PO4)2,-1.866838594560439
mp-560058,Li9Ga3P8O29,-2.673952342645772
mp-17850,K3NaTh2O6,-2.9537472777607743
mp-30885,YZn5,-0.332843220833332
mp-295,HoAs,-1.798619483749998
mp-866662,K5La4Si4O16F,-3.311082736708333
mp-754730,SrCaI4,-1.834513935416667
mp-16695,K2ZnP2O7,-2.595199219273809
mp-28630,Na3BN2,-0.6793939791666661
mp-770932,LiSbO3,-2.101960166666666
mp-5399,Tb(FeSi)2,-0.646343855333331
mp-558572,Na2UF6,-3.6285364033333343
mp-540530,Li2Co(PO3)4,-2.508613935538847
mp-7376,Sr3(AlSn)2,-0.601883492857144
mp-675545,TaHg2F6,-2.499335781833394
mp-758179,LiCu2PO4,-1.8424327391220232
mp-849538,Mn6O7F5,-2.209622243754789
mp-29887,Pr(ClO4)3,-0.9858752435416661
mp-540636,WOF4,-2.65028594
mp-976368,NdAlPd,-0.804428674722222
mp-755165,YScO3,-3.932606217
mp-974933,Rb3Mo,1.2047173593749991
mp-778715,LiMn2F5,-2.925933471774425
mp-1018148,ScAu2,-0.8795857516666671
mp-756131,Sr2CaI6,-1.912153243333333
mp-541853,U2(Co7B2)3,-0.257445067068971
mp-560086,Nd4(GeS4)3,-1.557741342105263
mp-12382,ErSi2Ni,-0.8244866349999981
mp-21540,Li3TiF6,-3.354392477166667
mp-34263,Mn2TcO4,-1.8376894301231532
mp-561216,CuGeO3,-1.602368533499999
mp-978596,Sm2Au2O5,-1.7419438183333331
mp-1014111,Ni,0.6202391299999991
mp-973443,Hf2ReTc,-0.40304602437499903
mp-977445,Nd2ZnIr,-0.478386341249999
mp-976587,KP2AuS7,-0.7033304180941551
mp-541193,Hg7Cl2O3,-0.6106302279166691
mp-1018720,HfVSi,-0.778411526666668
mp-754840,TaAsO4,-2.565420411638888
mp-131,Zr,0.0
mp-20451,LaInPt,-1.117896087222226
mp-557109,Na4Zr2(GeO4)3,-2.61009372454844
mp-570595,DySiRu2C,-0.5990902653333331
mp-559918,Ti2CuS4,-1.41592737202381
mp-23093,Sr2NdBiO6,-2.78517597775
mp-560611,HoCuS2,-1.59056209953126
mp-998308,CsScBr3,-1.926740993931034
mp-540645,Hg3(ClO)2,-0.802379842500003
mp-2694,LaAl2,-0.544782338333332
mp-768451,Cu2(SO4)3,-1.462423984264705
mp-553432,TiO2,-3.358393413055555
mp-562613,P2O5,-2.398106894540817
mp-31436,TbGe2Pd,-0.773099209791666
mp-556524,Nb2Sn2O7,-2.456659464090909
mp-753108,Yb2TiO5,-3.752196288177083
mp-642821,K3H5Pt,-0.441017609444443
mp-4960,Li(PrGe3)2,-0.42025012962962904
mp-7575,LiZnN,-0.42346953347222105
mp-626620,RbHO,-1.512544081249999
mp-753445,Sb4O5F2,-1.9718587863636352
mp-557989,K3Sb5O14,-1.9720473638295442
mp-541164,Hg9(AsO4)4,-1.125722464741381
mp-24112,Rb2ZnH12(SO7)2,-1.629999467096773
mp-5850,ErSnPd2,-0.891888471249997
mp-571608,Yb3Ag2,-0.249414447999998
mp-4212,Nb3Co4B7,-0.579429086369048
mp-797,DyPd3,-0.9265313987500001
mp-12383,Sc2Te3,-1.479276697
mp-767568,Li3Mn4(PO4)6,-2.376254724042738
mp-24277,KGdP2H4O9,-2.4525885896491593
mp-16992,NaAg3S2,-0.45348791052083
mp-557845,Na2TiS2O,-1.991042413515325
mp-758836,Li4Ti3O8,-2.989651255555555
mp-861654,HoInPd2,-0.825906460416664
mp-770830,HoBiO3,-2.798783189499999
mp-561241,USb3O2F17,-2.844469156086957
mp-983123,HfMgAu2,-0.5695663937499961
mp-36864,Li2TiO3,-2.977037725833334
mp-12987,Ho2NiGe6,-0.49623418222222004
mp-20249,MnCoP,-0.633445749191298
mp-12557,SrCuAs,-0.9286288908333321
mp-777904,Li2Ti3CrO8,-3.034193229761906
mp-13190,KRb2GaF6,-3.066574973975
mp-850934,Fe6O11F,-1.395453413333333
mp-567871,Nb5Si3,-0.6232783687499961
mp-541175,Sc7CoI12,-1.357256742750006
mp-26267,Li2Cu(PO3)4,-2.460351948433584
mp-865599,Lu2RuPt,-0.925857250833331
mp-781622,Lu(HO)3,-2.266001314880952
mp-672376,Re2Cl7O3,-1.421869364166666
mp-19906,Zr2InNi2,-0.502212656833336
mp-684804,MgC2S2(OF3)2,-1.645101364230769
mp-1019100,SmFeSi,-0.5730016883333271
mp-768081,Na2FePCO7,-2.239467641866789
mp-1013953,LiCo2P2O9,-2.033778094294218
mp-6800,KLiSO4,-2.302688434726189
mp-735531,NiH8(ClO2)2,-1.2117622966666661
mp-31677,LiCr2(PO4)3,-2.4244326476256592
mp-71,Yb,0.091576164999999
mp-24240,K3B12H12I,-0.45446650041964104
mp-778021,Mn7Fe(PO4)12,-2.178261292812228
mp-553961,ScNbO4,-3.466261806666667
mp-865810,TiTc2W,-0.44598740166666606
mp-2317,LaNi5,-0.28170988749999804
mp-982388,HoTmMg2,-0.04286506625
mp-707219,K2Zr2ZnH12(OF2)6,-2.4082747468428423
mp-12670,Ho2SO2,-3.592784443499997
mp-557917,SbI(OF4)2,-1.954513228749999
mp-5921,TaAlNi2,-0.466782146833335
mp-779228,Li4MnNi5O12,-1.417562047784743
mp-764452,Li3Co2(SiO4)2,-2.404422492666667
mp-27420,NaBiF6,-2.290271666875
mp-485,ZrNi3,-0.45845552374999704
mp-572794,ReP(Cl2O)3,-1.5517646165584411
mp-31468,LiCaN,-0.7978766309722221
mp-686540,Na3Al2P2O8F3,-3.073663639634647
mp-863731,InH4NCl4,-1.095029209166667
mp-561197,TaF5,-3.404466658305554
mp-5984,Y(BRh)4,-0.571063631296296
mp-777623,Na4Mn2C4SO16,-1.9785432903288631
mp-979274,UAg3,0.36722466999999803
mp-976273,Hf3Ge2,-0.7658539860000071
mp-770403,Li4V2(PO4)3,-2.6277697241553293
mp-999355,NbN,-0.863648566874999
mp-769268,Sr4Ta2O9,-3.393430841644445
mp-541686,K3GaS3,-1.3222657638214281
mp-541353,K2(TcS2)3,-0.9956153549431791
mp-4982,SmBRh3,-0.734807114833334
mp-980061,TbAs3,-0.6412156093750061
mp-982981,Na3Rh,0.37189283883620605
mp-8456,SrAsPt,-1.155768352499999
mp-865402,TmAlCu,-0.515470264444445
mp-774182,Li3Cr(PO4)2,-2.625688556139456
mp-27162,Sc3Co,-0.11944115125000102
mp-770898,Ti3Nb2V3O16,-2.9466309200000023
mp-4586,LiAlTe2,-0.925174646666666
mp-20712,EuGe,-0.808012367500001
mp-541013,TiI4,-1.031189425666664
mp-976969,MgPb5,0.036780824166667
mp-772410,Ti(SO4)2,-2.206645208939405
mp-458,Ti2O3,-3.303439634333334
mp-554699,GePbO3,-1.929228152999997
mp-569662,V2NiSe4,-0.693428101750009
mp-16646,PrMgRh,-0.5655288647222201
mp-27321,Na3(CuS)4,-0.7928564603761741
mp-558928,KrF2,0.001188317777777
mp-974492,ReTc3,-0.0015839231249960002
mp-19810,TaNiTe2,-0.592638418916668
mp-17189,K3Ce(PO4)2,-2.949903627216836
mp-541289,Y2S3,-2.382647370687501
mp-971751,VRh,-0.4316565775
mp-495,LuGa3,-0.5136466041666661
mp-5167,Sm(NiGe)2,-0.699670193
mp-30100,Li2B2Se5,-0.6224246154050931
mp-555934,VF2,-3.0166454050000002
mp-980006,Yb3Os,-0.070228391250005
mp-23144,TlRe3(Se2Cl)2,-0.915905657020834
mp-1557,Mg3Au,-0.392171660416666
mp-1781,NdRu2,-0.14326404916666902
mp-592,TiRu,-0.8397397358333331
mp-776056,Mn3Cr2Sb(PO4)6,-2.404018625601395
mp-850875,Fe2OF3,-2.266895330833333
mp-19230,K3NaCr2O8,-2.045793317366379
mp-6651,K2Ta2(OF2)3,-3.479900063974358
mp-766596,Ti(SiO3)2,-3.29867361162037
mp-976578,NdH3,-0.6655914338541651
mp-771912,Li4Cr2C4SO16,-2.079547901882716
mp-23918,NaGaH4,-0.20913664814655103
mp-780488,LiCrP2H5O9,-2.030892398270502
mp-37386,La2SmS4,-2.395920842142857
mp-559773,Na4Sr(SiO3)3,-2.872665538265721
mp-779311,LiFeBO3,-2.27807817875
mp-973992,Ho3Pb,-0.24099132374999502
mp-675271,Na2CO5,-1.220164251594827
mp-677028,RbBiF3,-2.5356505525
mp-1020118,MgSiO3,-3.212551147875
mp-771055,EuZrO3,-3.546871699999999
mp-561549,K2Be2(Si2O5)3,-3.145793632580015
mp-560570,Rb2NaAl6F21,-3.7379751730459763
mp-974856,Rb3Re,1.557705373749999
mp-763007,Mn2OF3,-2.627072922088122
mp-568224,Sm3CuSe6,-1.7022769531874982
mp-1133,V5S4,-1.1369394277777771
mp-780098,LiCoSnO4,-1.831471368333333
mp-675244,Yb(NdS2)2,-2.263590664464286
mp-672972,Sn(PO3)3,-2.431499422802197
mp-706588,Na3NdV2O8,-2.6545216919027093
mp-754503,ZrBrO,-2.61289921
mp-675813,Sm2Th3O9,-4.128825371785715
mp-999390,NbCr3,0.12222914000000101
mp-760217,NaTi4O8,-3.250194437541997
mp-8096,ZrCuF6,-3.167779554999999
mp-850899,Mn3OF8,-2.543746039482759
mp-561176,Sb2POF13,-2.684802123067226
mp-555871,Na2CuSbS3,-0.8920867621798011
mp-6896,Rb2NaCo(CN)6,-0.28375722446120605
mp-676646,Tb2Zr8O19,-3.743253054425287
mp-1407,Rh3Se8,-0.45499951749999906
mp-27147,Rb3BiBr6,-1.725256742125
mp-777268,Na(BiO2)2,-1.574786861268473
mp-773205,LiMnB2O5,-2.496438693288633
mp-542995,Nb6Fe16Si7,-0.41841044379310205
mp-1556,PuTe,-1.103204677708326
mp-557744,NaUBO5,-3.153883217568246
mp-3048,U2SeN2,-1.7262421784687492
mp-570451,Nb2Te3,-0.676008516
mp-558772,Rb2ZrS4,-1.559196623392857
mp-571189,NaHf2CuSe5,-1.412716987010894
mp-18762,Na4CoO3,-1.464403423189655
mp-755141,NaHoO2,-3.159362935344825