material_id,formula,formation_energy
mp-18981,Sr2CaWO6,-2.976089123999999
mp-760484,TmBO3,-3.4889196768333353
mp-560591,NaTi2Al5O12,-3.363461813402314
mp-756988,Nb5OF14,-2.98933270175
mp-570798,Er3(P3Pd10)2,-0.733948390615761
mp-695608,Rb8BaNaAl11Si13O48,-3.089704640260724
mp-2973,Pr3Sb5O12,-2.5899833424999983
mp-14795,K6CoSe4,-1.086848904352272
mp-1019734,EuBN2,-1.260715371666667
mp-7767,RbAgF3,-2.128560911833334
mp-12098,K(PRh)2,-0.8369016439404761
mp-775125,Li8Fe3Sn(PO4)6,-2.4538290892743753
mp-573373,PICl8,-0.9628011414642861
mp-1914,YGa2,-0.649560048333333
mp-1018812,NbGeAs,-0.4406887775
mp-780226,Li3LaO3,-2.6136430699999993
mp-541989,Na2CN2,-0.607621109499999
mp-30280,K4(TiTe3)3,-1.073398012906249
mp-983607,V3Cd,0.3327834725
mp-536,ThZn4,-0.324965814
mp-637378,Gd3InN,-1.092494317749992
mp-752606,Li2CuSiO4,-2.339410712083333
mp-864943,MnBe2Ir,-0.45284055448275706
mp-706301,HClO4,-0.5420595018750001
mp-769583,Li3VCr3O8,-2.394411219333333
mp-1956,TmGa2,-0.680468718333332
mp-4606,U(Al2Fe)4,-0.316695899230777
mp-31443,Li2InIr,-0.34549607333333304
mp-569294,NdB2Rh2C,-0.577715003472224
mp-11262,YbAu4,-0.6652043629999981
mp-19117,Li4MoO5,-2.261947287833334
mp-1014229,Ti2Zn,-0.156692875555556
mp-720857,SbH3SO6,-1.588883756931817
mp-762088,K2OsO5,-1.805403528895832
mp-570553,FeP4,-0.37004192121428403
mp-757953,ThNb4O12,-3.195786453529411
mp-5461,Rb3TaO8,-1.749546449986112
mp-32895,SiO2,-3.250911555694444
mp-9978,ErSe2,-1.744227473819445
mp-554593,TbTaO4,-3.726776458999997
mp-556506,MnCdF5,-2.633031943990148
mp-765970,Ti3Sn7O20,-2.488671570166666
mp-713,KAs,-0.43754621737500005
mp-1018122,Tm,0.006666056666659001
mp-561973,K(TeO3)2,-1.614326674509258
mp-972120,Sr(GaAs)2,-0.7780492049999991
mp-754434,Hf3N4,-1.900440968571428
mp-975361,RbErO3,-2.3186068585
mp-673669,In4(SnO4)3,-2.00857232114035
mp-7917,HfGeSe,-1.090815744114582
mp-977230,Li3Tc,0.6243282262499991
mp-557492,LiLa5Ti8O24,-3.620715909078947
mp-644324,K2FeH4(SO5)2,-1.8317538741842112
mp-103,Hf,0.0
mp-554335,K2CuH12(SeO7)2,-1.354456001909274
mp-14551,Sr2CaUO6,-3.5751812629999993
mp-22543,Sr2GdCu3(PbO4)2,-2.051774470624999
mp-764154,LiCo2OF3,-2.187727634761905
mp-5898,La(SiNi)2,-0.754931222999989
mp-974458,Re3F,0.35794396510416904
mp-867162,LiTm2Rh,-0.532870973333338
mp-770997,Li2HfO3,-3.159298665277776
mp-761454,Sn(WO3)3,-2.045179445
mp-7661,Li2RhF6,-2.415816682592591
mp-5854,LiGaO2,-2.378874777083333
mp-685633,Y10U4O27,-3.891439072804877
mp-2567,V3Si,-0.49731380000000003
mp-772208,Li3Co3SbO8,-1.724340841333332
mp-773319,Mn3Cr2Te3O16,-1.7165301643247122
mp-35869,TiNbN2,-1.500488722291665
mp-773055,Li3Mg3Ti6O16,-3.237680050892857
mp-1969,NbSb2,-0.314983543333336
mp-2602,NdAs,-1.781174519999996
mp-631635,TaCoSn2,0.599312998166666
mp-684833,Na8Al6Si6O25,-3.016721267022989
mp-781997,SmH10S3N3O11,-1.455493440535714
mp-655,Na3As,-0.5529736389583331
mp-772438,LiCoPO4,-2.334521591496598
mp-7478,RbTmO2,-3.087397629375002
mp-1020142,Na2B4O7,-2.72224613563955
mp-2926,Pr2MgNi2,-0.268302184666666
mp-7038,TlPd2Se3,-0.458453154531251
mp-972412,TmLuIr2,-0.9633161666666681
mp-27490,Te2AuCl,-0.30498063687500104
mp-996,OsO2,-1.343400869999998
mp-1818,SiF4,-3.306972093
mp-20471,U4Si6Tc7,-0.614347797647062
mp-552120,YClO,-3.507683659999999
mp-976856,NaMg3,0.12091819779102
mp-6140,PrNi2B2C,-0.429912884166666
mp-4250,Tb(SiPd)2,-0.922091847333335
mp-43134,NaNdTiNbO6F,-3.368476822473877
mp-560409,P3S3N6F5,-1.133012580231092
mp-757636,NbTlO3,-2.453145602916668
mp-541996,Pr2SiTeO4,-3.258592899687499
mp-11615,TmMnGe,-0.5182799065325691
mp-557754,ZrP2O7,-3.104933454428569
mp-568405,K2NbCl6,-1.990916739388887
mp-582259,Li7VN4,-0.9519122358680551
mp-753508,LiCuS,-0.8532056802777761
mp-777591,Li4Ti5Fe3O16,-2.788818240714286
mp-768229,Li2BiS3,-0.981744473194443
mp-562,Sb2Pt,-0.541804146666663
mp-981212,TmMg2,-0.041643210000001006
mp-7298,Li(CuP)2,-0.37928940852381005
mp-30948,Tb(IO3)3,-1.478284576858975
mp-631354,ReOsRu,0.687556893444442
mp-1008626,VTe2,-0.5893001077777781
mp-10844,Te2Ir,-0.294287259583323
mp-867234,TbMgHg2,-0.45184054916667105
mp-585226,Li3Fe2(PO4)3,-2.477361703696428
mp-771060,Na5LiNi2P2(CO7)2,-2.229790018635214
mp-767,Yb3Ge5,-0.686023140625003
mp-755840,Nb2SbO6,-2.630985755555555
mp-756095,NaCu3O4,-1.086233225172414
mp-23949,RbCaH3,-0.47965106625000004
mp-30021,K5Sb4,-0.575929994305555
mp-530986,MgSiO3,-3.127845193249999
mp-554526,KGd(PO3)4,-2.907317006712301
mp-764730,Li3VO3F,-2.6139950284375
mp-989512,LiTl2InCl6,-1.5736920236666672
mp-770627,Li2MnFeO4,-2.021162801824713
mp-556804,PrAl3(BO3)4,-3.230309770166666
mp-1124,MgZn2,-0.130630304999998
mp-28490,Tl3BSe3,-0.400568664241071
mp-765351,Li2Sn4P4O15,-2.328705005809523
mp-557401,Na6PbO5,-1.560489725689655
mp-771876,Li5NiO4,-1.825500981916666
mp-1776,UN2,-1.642954397500001
mp-674940,La12Au3I13,-1.356989989107143
mp-567248,Yb4Mn2Sn5,-0.576329412633232
mp-976949,Lu3In,-0.31381721999999
mp-11569,SmTl3,-0.269146718750008
mp-685003,Tb2Se3,-2.120702778822918
mp-20800,ZrIn2,-0.39832570916666504
mp-5816,UBC,-0.5448871858333321
mp-11690,Tc2P3,-0.584608927785711
mp-4804,Li4TeO5,-2.104244935500001
mp-771110,Li4Mn5P6WO24,-2.5153591067711423
mp-2674,YPt2,-1.187274214999997
mp-558947,SiO2,-3.2574067163194442
mp-19851,KInTe2,-0.9014764568124971
mp-631384,Sr2VW,1.540139326666668
mp-23884,SrGe(HO2)2,-2.189245472187499
mp-554435,TcBi3O8,-1.8074520962500031
mp-768161,LiSiPCO7,-2.5095004698160173
mp-20033,SnIr,-0.274733545000003
mp-16965,LaTm(Ge2Ir)2,-0.826296030625002
mp-29836,Na3HoCl6,-2.239178432999999
mp-770154,Li3V3(BO5)2,-2.563503394351851
mp-18334,NaHoGeO4,-2.878158338768471
mp-22170,Li4PbO4,-1.919143204259254
mp-11368,Er5Ga3,-0.569938282708335
mp-554941,KRb2BiF6,-2.898331616224999
mp-976744,LiEr2Tl,-0.177070156666667
mp-5215,NdNiGe2,-0.744844490624999
mp-540545,MnH8(BrO2)2,-1.284140651195401
mp-15856,DyRh3C,-0.50251371933333
mp-5159,LiGa2Pd,-0.534250166666666
mp-766262,H20C3(N2O5)2,-1.08704278027027
mp-1739,Hf5Ge3,-0.7400822718749961
mp-20642,NdMn12,0.051653498255968
mp-696736,RbBe2F5,-3.468358756562505
mp-30230,Rb4SnS4,-1.257259677222222
mp-569213,Dy4Ni12Sn25,-0.327063981747965
mp-646633,V2Ni(PO5)2,-2.461723999285715
mp-2444,GaRh,-0.6799595537499991
mp-582108,Sr21(Cd2Bi9)2,-0.8260277562790701
mp-26742,Cu4(PO4)3,-1.855624705733082
mp-780292,Li8Mn5Fe3(BO3)8,-2.431972868117815
mp-696123,Li10Sn(PS6)2,-1.18001691310476
mp-541285,Th(TeO3)2,-2.465903043425929
mp-775435,Li3MnV(PO4)3,-2.61218437084298
mp-866007,DyMgTl2,-0.191325248333335
mp-735541,NiSn2H12(OF)6,-1.689408495648148
mp-9946,ZnS,-0.9620232339062491
mp-976075,Li3Ca,0.045540925
mp-568196,Er3CoSi3,-0.764162008571428
mp-1001785,MoP,-0.021708293988094002
mp-1014265,Zr2N,-1.4107297929166691
mp-754152,YBiO3,-2.750124736000001
mp-696994,Zr2H16SN3(O2F3)3,-1.906519177635134
mp-1793,Zr3Te,-0.5834022962500001
mp-771323,Tm2Ti2O7,-3.806610549924245
mp-764652,LiFe2(BO3)2,-2.266762030833333
mp-33107,SF4,-1.2907437397361101
mp-777277,Li2Cr3CuO8,-1.9626794220833321
mp-568498,Sm2(CN2)3,-0.9334202065909091
mp-10271,ZnCo3C,0.10896379500000102
mp-5557,ThB4Mo,-0.598870855833335
mp-754659,Zr3N2O3,-2.8426229743750002
mp-720642,NaB3H4O7,-2.189306755591953
mp-560908,V3S4,-1.047533668571427
mp-567159,Dy6Ti4Al43,-0.339040828553458
mp-532676,LiMgAl3(SeO4)6,-1.780080560354166
mp-569462,Pr15Si10Ni7,-0.606243553437499
mp-27428,KBrO4,-0.8378744545416671
mp-569943,K2AgI3,-1.262457217694445
mp-542449,Sc5Cl8,-1.973734355
mp-554515,KScH4(C2O5)2,-1.863067354862499
mp-567712,PrCoGe,-0.580271132222219
mp-849325,SbH4NCl6,-0.9949185366666671
mp-15339,Sr3As4,-1.132461913571429
mp-774658,LiSnPO4,-2.38851562685374
mp-777047,LiTmO2,-3.2787756283333342
mp-25896,SbP2O7,-2.25912832342857
mp-632502,Zr2InNi2,-0.5001406378333341
mp-626785,KHO,-1.5460019428333331
mp-567817,HfGeTe4,-0.532731018333336
mp-643359,Rb2Sn(H2N)6,-0.39296778452380804
mp-754117,YHO2,-2.9322049378124992
mp-7480,RbLuO2,-3.105072738541667
mp-780399,Na6B4Sb2PO16,-2.395374068951219
mp-774397,Li4Mn2Co5O12,-1.6961201801824082
mp-2783,Ta2Si,-0.594204636555555
mp-771336,Na3MgPCO7,-2.503580787598522
mp-5590,YMgGa,-0.49080881194444503
mp-569804,Er5Zr3(Ni4As3)4,-0.8188898791666661
mp-772297,Li2Cr2O7,-1.822665184242423
mp-971799,DyYHg2,-0.587166917500006
mp-770706,Li6MnAlO6,-2.294734384852217
mp-8943,PtF4,-1.375093648
mp-3759,MgGeO3,-2.533935939999999
mp-675797,Zn7(SbO6)2,-1.82219273952381
mp-770388,RbFe3O5,-1.6622074347222222
mp-20381,HfGaPd,-0.7626544388888901
mp-539,Ga2S3,-0.7975143386875001
mp-568048,Hf54Os17,-0.384634026901411
mp-14912,La4Si2Se3O7,-3.262224171689453
mp-975588,PuPtO3,-1.5235192667499962
mp-20182,GdRh3C,-0.49975093199999704
mp-1018177,EuC2,-0.18158812499999902
mp-541747,MgGeH12(OF)6,-1.867270398461538
mp-766098,LiTi3Sb(PO4)6,-2.847361820891157
mp-769965,Li2Cr3CuO8,-1.940310578333332
mp-978828,Sm3Zn,-0.028808963750000003
mp-540363,VP2O7,-2.530355182428572
mp-1395,VRu,-0.306896892499999
mp-755723,Er2Pb2O7,-2.547577461818181
mp-26585,Li5Sb2P5O18,-2.554948122329365
mp-561157,Sr3Y2(BO3)4,-3.356467191031745
mp-639741,SiO2,-3.250691137638888
mp-753048,TiSnO4,-2.759993028611111
mp-541761,Zn3As2(HO)16,-1.341777372027027
mp-14276,RhPb2F7,-2.274882263499998
mp-557203,SrZrO3,-3.606928869250001
mp-765549,Li7CoOF7,-2.863254550833333
mp-734771,PrP2(HO)7,-1.8640694360119041
mp-558208,RbInAs2O7,-1.9163219383333332
mp-37255,Na2RuO3,-1.646300400459767
mp-570520,ZrHg3(SeCl3)2,-1.403146085182293
mp-2473,Re3As7,-0.085176578499999
mp-782664,Ti3MnO8,-2.9836072214942533
mp-762163,Li3TiMn2O6,-2.470161345766284
mp-10824,ZnCu2GeSe4,-0.5947719280468741
mp-755998,Zr3N2O3,-2.901034143125001
mp-775440,Li2Cr3NiO8,-2.006038055654762
mp-542972,KNb2PS10,-1.072598388528061
mp-1606,NbAu2,-0.16714933
mp-863724,InPd2Au,-0.43434150749999706
mp-10942,KNaLaNbO5,-3.040243175403257
mp-17722,PrTaO4,-3.645757438166669
mp-11607,Si3N4,-1.221445922857142
mp-559184,Zn2Si3Pb4SO15,-2.320722304299999
mp-556709,Na2ZrSiO5,-3.075120935584291
mp-22947,K2ReCl6,-1.486913343888888
mp-773238,Mn(CoO2)4,-1.2937406706100791
mp-775959,LiLa7(CuO7)2,-3.129668005868056
mp-972318,TiSn3,0.107008864270834
mp-28602,Na3ClO,-1.6976095178275852
mp-2049,ZrMo2,-0.13909274833333501
mp-1380,Zn3Ru,-0.1515198325
mp-761589,NbCo3O8,-1.607891401666666
mp-570666,Mo3Pt2N,-0.41418762749999405
mp-777751,Li3Nb3P8O29,-2.745694252491693
mp-18463,RbZnPO4,-2.513455971734693
mp-978539,SmTmRu2,-0.281347411250001
mp-2843,SnF2,-2.375956695416668
mp-561353,NaZr2MnF11,-3.720106141620689
mp-17434,K2SmF5,-3.7348699311875
mp-771073,Li4Mn3Co3(CuO8)2,-1.423419782754515
mp-978542,SmErIn2,-0.5847715733333311
mp-779095,Mn3OF5,-2.730392698199234
mp-2523,PuPt3,-0.5981284421874961
mp-755901,Sm3NbO7,-3.6667648963636372
mp-30929,Hg4As2O7,-1.15980937596154
mp-561090,SiO2,-3.25193751372549
mp-16818,Rb2Cd3Se4,-1.042348969652775
mp-30533,KPt2S3,-0.802294120364583
mp-5175,NaInO2,-1.978897959511493
mp-976236,NaCaTl2,-0.32420700499999805
mp-555629,SbTe(ClF2)3,-2.117615678333326
mp-783903,Li2Fe3NiO8,-1.52171073797619
mp-754406,Li2CuPO4,-2.294052068288691
mp-683,Pr2C3,-0.28360052216666504
mp-623814,Hf8FeTe6,-0.793466868333333
mp-16509,LuAl4Ni,-0.56088443361111
mp-30672,Ti3Ga,-0.32138453437500003
mp-30818,Li2AlPt,-0.7543592208333331
mp-982261,PbSe2,-0.40467229270833105
mp-767427,LiFe2(BO3)2,-2.264825136287879
mp-2661,SrSi,-0.5268471175
mp-976424,LiLa3,0.14772782541666601
mp-762029,LiAg2F4,-1.75544126702381
mp-769494,Na5Fe2P2(CO7)2,-2.24138993404729
mp-772216,LiNb8O14,-2.7188851707971002
mp-560588,ZnS,-0.959653981406251
mp-558548,Na3B6NO13,-2.482855807679911
mp-761840,Zr5Ti7O24,-3.601691294537037
mp-1016902,ZnSnO3,-1.267944153999999
mp-11224,Sr8Al7,-0.19738584334567602
mp-755883,NaDyO2,-3.145256563261492
mp-6413,LiDy(PO3)4,-2.928945092142855
mp-30422,Sr7Au3,-0.517273361500002
mp-1018723,HoCo3Cu2,-0.09816219749999801
mp-646116,Na3MgC2BrO6,-2.192936837433687
mp-675104,Na3YCl6,-2.2357215325
mp-560107,SbAs3(S2F3)2,-1.604592454821428
mp-762840,Li3CrP2HO8,-2.484548176702381
mp-558805,Na3Nd(BO3)2,-2.799580951455938
mp-28881,Rb2UCl5,-2.2606476771875
mp-20162,InAgS2,-0.46991981390624904
mp-560725,ZnS,-0.962524704218751
mp-28800,K2Bi8Se13,-0.791708378476904
mp-677731,Rb2NaNb6(PO8)3,-2.93584741028633
mp-975905,Mo3I,0.8714024587499971
mp-9530,Y4C7,-0.258570687045455
mp-22760,La(MnGe)2,-0.461635562172415
mp-780110,LiVP2HO8,-2.4823537895283883
mp-31302,KCO3,-1.735766983450001
mp-978960,Sm3Tm,0.031519092499998
mp-36305,Pr2UTe4,-1.45879772398808
mp-24038,K2CuH12(SO7)2,-1.557527835790321
mp-864918,NpN2,-1.243068065208338
mp-6891,Sb2RuC6(OF2)6,-1.8998305414814811
mp-582924,Zr6Fe23,-0.16657137758620802
mp-3276,Nb4Cr2Si5,-0.49549889909090905
mp-27838,Na3Bi,-0.498157301249999
mp-530303,Mg(GaO2)2,-2.524677245714285
mp-834,ThN,-1.771323434374998
mp-695960,NaZn(HO)3,-1.5235385029849131
mp-556808,RbNb(BO3)2,-2.893123393783333
mp-13771,Sc2Cd3(GeO4)3,-2.4085454906250012
mp-625272,Zn(HO)2,-1.4503822011666672
mp-18794,Sm2TiMnO6,-3.436049351626438
mp-2760,Nb6C5,-0.617065229090909
mp-760502,LiH2ClO,-1.6113052486666661
mp-646420,Nd2InRh2,-0.6688713673333321
mp-768820,Li3Bi(BO3)2,-2.465725820902778
mp-29089,Sr2GeN2,-0.8044763772500041
mp-759432,LiCu(PO3)3,-2.334914016232994
mp-3804,Sr(PRu)2,-1.021881211190475
mp-767955,Li3Fe2(NiO4)2,-1.573516122
mp-30147,ZrTiAs,-0.9798659952777761
mp-556820,Sm3Si2Cl5O6,-3.2213490909375
mp-558576,ReSb(OF4)2,-2.5082371270833352
mp-569896,K14(Tl7Cd3)3,-0.100259045261366
mp-690521,K3CrF3,-2.066730965249999
mp-5637,SrZnO2,-2.43478201625
mp-18848,Sr2MgWO6,-2.9759653285
mp-542,SrHg,-0.525794336250005
mp-1941,GaNi,-0.35566533
mp-23357,Sr2Bi2O5,-2.3532693686111132
mp-30926,LaB5O9,-3.082861426555554
mp-22337,Hf5Ga3,-0.5180995300000001
mp-703273,KBaLiZnF6,-3.277664062058333
mp-557195,KCa2Nb3O10,-3.153392547484374
mp-29456,Rb2IN3,-0.648926584999998
mp-23774,K2LiAlH6,-0.37090790253333306
mp-699570,VTe4Cl4O,-0.899657856166666
mp-780474,Li3MnFe2(BO3)3,-2.386588250579501
mp-758101,Li4Cu3F10,-2.376950572156861
mp-764913,Mn2O3F,-2.033986301977012
mp-27872,MgTi2O4,-3.216973033809524
mp-567917,TlBi(PSe3)2,-0.522225546543155
mp-780216,Li5Fe3O8,-1.8442670435416662
mp-31964,Li2Mn(PO3)4,-2.623123920693112
mp-818,SiRh,-0.8408696187499981
mp-554505,KHo(PO3)4,-2.9164901039345232
mp-764879,V4(OF3)3,-2.954882188437501
mp-781954,Fe5(OF4)2,-2.313796794666666
mp-1007755,HfAu,-0.6057786524999991
mp-2025,HfBe5,-0.2293877075
mp-862362,Sc2TcPt,-0.749040881249998
mp-684641,Fe2S,-0.206368987738092
mp-863705,Pm2MgGa,-0.331468791875
mp-721317,Na2CuH4(SO5)2,-1.7073151706715062
mp-764262,Li10FeCo9O20,-1.721980786583333
mp-568506,Pr2Ni2I,-0.753634199666667
mp-996966,KAgO2,-0.9949358772291651
mp-865731,Li2HgPd,-0.42043084479166803
mp-707735,MgH12(I4O3)2,-1.004198632592592
mp-761572,Li2TiCoO4,-2.4965692443750003
mp-23372,Sn2Bi2O7,-1.924906653181814
mp-15217,Rb2TaAgS4,-1.299841390499999
mp-626450,PH3O4,-1.865143003236606
mp-696931,TlCuHSeO5,-1.130355233547455
mp-2385,TaCr2,0.059876289222221005
mp-27453,Li7SbO6,-2.146406998095237
mp-771642,Sr2CaI6,-1.8921311858333332
mp-2778,HoAg,-0.32771211833333
mp-643749,KCaF3,-3.7172754979500002
mp-21748,TbSi3Rh5,-0.9616291461111101
mp-546864,Y2C(NO)2,-2.4484711107142862
mp-541148,KUVO6,-2.987966934138888
mp-5369,PrB2Rh3,-0.633835919999998
mp-976319,NaHo3,0.32708337586207004
mp-978092,PrCuGe2,-0.637492519166666
mp-19478,VAg2(PO4)2,-2.124902452316849
mp-18662,Ho2Si2O7,-3.675094839090908
mp-4176,La(SiPt)2,-1.112182730999995
mp-1392,ZnP2,-0.31427648031745903
mp-3141,ErInRh,-0.7509894155555541
mp-19418,VCrO4,-2.354943370833332
mp-753632,Li2CrS3,-1.177375005694443
mp-720802,Na6HfH8S5O24,-2.011229415017632
mp-760184,Na4Ti5O12,-3.0710154998659
mp-776063,Li2MnPO4F,-2.7270636599156193
mp-19877,ZrNi2Sn,-0.49697709124999906
mp-3077,SmAlGe,-0.6646172733333341
mp-762111,Li2CuPO4,-2.264146504747023
mp-662572,Ta3In2Cl9,-1.537544011095234
mp-776597,NaCu(PO3)4,-2.326563028330596
mp-765193,LiSn10(PO4)7,-2.234913158278985
mp-980942,YTmMg2,-0.053347007500001
mp-761314,Ga2NiO4,-1.957979862142857
mp-684042,Li3Bi2(PO4)3,-2.501184845696428
mp-4835,LaCuSi,-0.675431773333334
mp-8127,K2Mg(CO3)2,-2.263282359954545
mp-754841,Sc(CuO2)2,-1.8785662257142852
mp-28316,K3LiSi4,-0.068295458135416
mp-755121,TiBi2O5,-2.278633164791668
mp-32654,Sc2Te3,-1.4393607169999991
mp-2365,Pr4As3,-1.457562279166662
mp-865112,NaPrTl2,-0.36514797541666805
mp-768103,NaVPCO7,-2.355233276683833
mp-20804,Rb(InAu2)2,-0.26451472226190403
mp-865299,TmZnRh2,-0.716732584999998
mp-7348,Sr(BRh)2,-0.6386998189999981
mp-2354,Ti3Hg,-0.128662995624999
mp-696878,K3CaP2HO8,-2.720008220819047
mp-685371,Ge9(Sb5Te12)2,-0.23612749709302203
mp-867727,Li5(BiO3)4,-1.686814682222222
mp-17902,K3Na(RuO4)2,-1.70723813772352
mp-557543,K3LuSi2O7,-3.092836822570512
mp-22772,Sr2Nb5O9,-2.8621010984375
mp-938,GeTe,-0.035467995000001
mp-850193,HoBO3,-3.524040383833331
mp-375,UO3,-3.612179313749998
mp-17693,SrCdP2O7,-2.802720797662336
mp-31014,ZrP2S7,-0.96832660617857
mp-760546,LiCu2(CO3)2,-1.530070213939395
mp-16291,NaZr2PdF11,-3.384749659091953
mp-643394,NaInH8(NF3)2,-1.654941714335887
mp-757652,H13S2N3O8,-1.156254712740395
mp-850868,NbH8N2O2F5,-1.697182233611111
mp-558085,KNaGeO3,-2.110632233104885
mp-14722,NaSrAlF6,-3.825200985153257
mp-686677,Rb2PH3SeO8,-1.8705696157157732
mp-769658,Li2TiFeO4,-2.56365062375
mp-20916,V5Ge3,-0.31226512562500003
mp-541963,Rb3(FeSe2)2,-0.952661351041666
mp-782668,Li4VP2(O4F)2,-2.771960992212886
mp-19269,NdCrO3,-3.141842748000002
mp-680204,SiO2,-3.25888078151515
mp-669345,TaTeCl9,-1.511194901727272
mp-27638,NiI2,-0.380275129999998
mp-8298,Sr4P2O,-1.633793929183673
mp-20072,LaCuO2,-2.689203321249986
mp-18594,K3AsSe3,-1.110978559111606
mp-1009894,ZrC,-0.40040061750000006
mp-9637,K3NpO2F5,-3.272654115727272
mp-567905,U3Ni3Sn4,-0.206632540999997
mp-9973,VB,-0.8998122912500001
mp-631303,InReGe,0.6636675047619081
mp-10393,SmGaSb2,-0.7985262737499991
mp-19477,Mn2Al4Si5O18,-3.178988181926279
mp-865794,LaYbHg2,-0.546932408750002
mp-698120,KGd2Cu(MoO4)4,-2.3789512198854172
mp-570806,Mg30Al24Ag19,-0.032273761735158
mp-772535,LiNb13O33,-3.008369918049646
mp-18043,Sr6YSc(BO3)6,-3.339772416562501
mp-504769,N2O5,-0.6082904992857151
mp-622619,UVAgO6,-2.566959402962963
mp-101,Ir,0.0
mp-31008,Na14Al4O13,-2.251951860784205
mp-23299,RbCl,-2.215095403749998
mp-4350,La2(SeO3)3,-2.341326788359382
mp-15822,LiSmGe,-0.6998842199999991
mp-972635,SmErHg2,-0.563145354583333
mp-1009491,RbTe,-0.44834812708333205
mp-647604,PuIO,-1.737618932916663
mp-1002164,GeC,0.438373328749999
mp-34330,MgAl2O4,-3.319463689285714
mp-559520,In2Ag3(PO4)3,-2.041417593863094
mp-850994,LiMn2(BO3)2,-2.427766032275339
mp-780193,LiCr(PO3)3,-2.596301211947279
mp-775864,NaCo11O17,-1.27335888763377
mp-676329,Rb5Re3S7,-1.101806723499998
mp-757816,LiNb(PO3)4,-2.565194797883597
mp-757159,LiSiBiO4,-2.448347063690476
mp-559176,La4Ti5(Si2O11)2,-3.541655396476189
mp-540632,RbTa(GeO3)3,-2.48581121677381
mp-27069,Li3Bi2(PO4)3,-2.510777986946429
mp-14435,K3GeSe3,-1.187501841254464
mp-11293,ZrCdCu2,-0.138523232499998
mp-559628,NaNp3F13,-3.849877789926465
mp-776806,Li4V3Fe3(SnO8)2,-2.1890153326190482
mp-558347,K4Ba(SiO3)3,-2.882499321705883
mp-780403,NaCu3O2,-0.884623894813218
mp-557929,Tl(Cu3S2)2,-0.35612274666666704
mp-754495,NbNO,-1.918798374166666
mp-770543,Mn2O3,-1.949647783172413
mp-27508,Li6Br3N,-1.234039098
mp-696291,ZnH4(NO4)2,-1.117110082333332
mp-780936,Li5V6O5F19,-2.943521213333333
mp-14030,Na2LiY(Si2O5)3,-3.184671181143677
mp-975468,RbAc3,0.38452003374999905
mp-22379,Y3(Co2Sn)4,-0.293292983666665
mp-11550,Sc2Pt,-0.9765987383333321
mp-10927,SrC2(SN)2,-0.6533053443048481
mp-775867,LiSbPO5,-2.330028612247024
mp-755018,RbTaO3,-2.979764999966666
mp-972058,YbTmO3,-2.978987808250002
mp-782821,LiV2(OF)3,-2.7208222207407413
mp-12024,RbVSe2,-1.162994152421875
mp-865771,YbInPd2,-0.9187076937499971
mp-771854,Li4Cr5Co3O16,-1.9361160058333322
mp-776220,Hf2N2O,-2.456694366666666
mp-3615,Nd(BO2)3,-3.16329933
mp-3735,GdPO4,-3.430193205357142
mp-862775,LiInRh2,-0.343516731666667
mp-557057,NbO2,-2.897628194166666
mp-863703,Pm2MgSn,-0.43075507625000004
mp-973339,Lu3Th,0.030868655000006004
mp-781789,Li4NbIn3(PO4)6,-2.647087296741854
mp-560262,Zn(InS2)2,-0.7467899718112201
mp-555104,Na2Er2B2O7,-3.17771053046861