material_id,formula,formation_energy
mp-505164,NbTe4Ir,-0.6850153948611071
mp-1001113,Si,0.48982796249999905
mp-8793,Nd5(FeB3)2,-0.38598615788461604
mp-780192,Li5FeO4,-1.9949778201666661
mp-626885,U(HO2)2,-2.535473653214284
mp-18953,NaV(OF)2,-2.696898790229884
mp-769590,Li2V3CrO8,-2.427746425833333
mp-1002104,LaPt,-1.297595414999996
mp-4316,Sr(NiAs)2,-0.7208339249999991
mp-752546,LiTi4O8,-3.26351046051282
mp-780862,Mn2OF3,-2.6050547529770123
mp-17395,TmCu(BO2)5,-2.820029439460785
mp-2083,Sn2Ir,-0.310802113333333
mp-850231,Li2TiFe3O8,-2.146936383571428
mp-27377,K4Zr5O12,-3.262750822809523
mp-21238,ThSi,-0.7197681062499931
mp-18509,KBe3ZnF9,-3.311582430160715
mp-541325,Sr2HoGaCu2O7,-2.498758068653845
mp-862927,LiPmHg2,-0.522510124791665
mp-9954,HfAs,-0.992040292499998
mp-759441,LiCu(PO3)2,-2.270798107386905
mp-721236,Li10Sn(PS6)2,-1.19166455490476
mp-1019266,SmTe2,-1.430881646666667
mp-780172,Tm2TeO6,-3.053953418981482
mp-773016,Lu2P4O13,-3.128658436679199
mp-7440,NaP,-0.49986311961309404
mp-975664,NdGe3,-0.45331020791666504
mp-756593,Ta3(OF)5,-3.3695761963076922
mp-865315,Lu2MgOs,-0.21346111208333501
mp-783907,LiMnP2HO7,-2.4425581020250062
mp-3006,P2Pd3S8,-0.634964529175822
mp-1339,NbIr3,-0.609848681249998
mp-22708,Th3Co3Sb4,-0.7201878874999971
mp-999393,NbCr3,0.543022127499998
mp-39626,SrLaMnWO6,-2.8462178882931033
mp-979751,TaTiFe2,-0.28507192016666605
mp-35249,Sm2Hf2O7,-3.9977812672727273
mp-542840,In2Si2Pb2O9,-2.400471791555555
mp-780894,Na6Ni2P(CO4)4,-2.001414461307542
mp-554714,Np2O5,-3.448520474642858
mp-760092,SbOF,-2.131573414166667
mp-775200,MnNi(PO4)2,-2.200577430184728
mp-29048,Sr(BiO2)2,-2.111014762857145
mp-28091,In2(TeO3)3,-1.7118207861309571
mp-541332,Sr2LaGaCu2O7,-2.481028387884615
mp-17166,K2B4O7,-2.771660704320512
mp-578882,SbPb2S2I3,-0.7633883131249991
mp-21336,TaFeP,-0.835946959825398
mp-20588,ZrCuSiP,-0.6979843711607141
mp-982387,Pm2ZnHg,-0.44017543437500306
mp-569935,La3(BN2)2,-1.555679080555554
mp-17676,Sr2SnS3F2,-2.467599055312499
mp-1018107,ZrTe2,-1.0684746383333321
mp-510408,MnO2,-1.776084879310346
mp-5419,LiGa2Ir,-0.5660502191666691
mp-29030,ThTl3F7,-3.07901688522727
mp-703316,LaMg2H7,-0.454057861125
mp-20612,NaMnAs,-0.267439665603448
mp-559730,KGa(Te3O7)2,-1.6452120545340891
mp-528,U2Zn17,-0.019792172631575
mp-662513,Te2WCl6,-0.714394174537037
mp-699543,Na2Co5Mo4(ClO4)4,-1.759426905895439
mp-762600,Li6Fe7O15,-1.285625429107142
mp-18721,Mn2P2O7,-2.5816131941043423
mp-767709,Li2Mn3Si3O10,-2.73346017141443
mp-7589,Mg2NF,-1.9785479875
mp-733729,RbInPHO5,-2.300101081395502
mp-10129,TmNi4B,-0.5115989590277781
mp-4851,Sr(GaO2)2,-2.639062434821427
mp-763229,VOF,-2.8013677520833333
mp-556031,Sn2P2O7,-2.356596268344154
mp-193,Zr2Cu,-0.13412213
mp-6092,TbNi2B2C,-0.5109415083333331
mp-754444,Zn(AgO2)2,-0.6901034161904751
mp-3299,Sr(FeP)2,-0.822323491857144
mp-707485,K4Cu3As4(HO8)2,-1.665504469189655
mp-570538,NaN3,-0.16696232156250002
mp-975176,Rb2HgAu,-0.21356119687500102
mp-769540,Na3Mn2P2(CO7)2,-2.238906025621117
mp-865651,Y2TlCd,-0.34603285583333304
mp-6245,K5Nb4O12F,-2.869486210284089
mp-2868,Th11(Ru2C3)6,-0.39454502463414204
mp-1008865,NdCd2,-0.313973819166664
mp-643573,Mg3MnH7,-0.34585185606191104
mp-1009732,RhN,0.9106934174999991
mp-776406,TePO5,-1.968409909115647
mp-1453,NdSe,-2.106972128281249
mp-1020616,RbMgPO4,-2.904985484948979
mp-625154,H8PtO6,-1.128265249999999
mp-973165,Lu3U,0.387502162499998
mp-779360,VOF,-2.806294350416667
mp-776280,Ti2N2O,-2.133363785583334
mp-22585,GeRh2,-0.470515416666666
mp-775935,ZrO2,-3.6831441938888902
mp-38818,HfNbB4,-0.900500823333336
mp-676290,RbHS,-0.6684781254166661
mp-982321,Yb3W,0.32069355249999604
mp-776692,LiFe2F7,-2.739210143333333
mp-28198,RbInI4,-1.142265570138884
mp-22792,MnTePd,-0.20975325486589902
mp-556592,TlBi(PS3)2,-0.640154575761904
mp-6674,LiLa2SbO6,-3.059468489833334
mp-31515,Sr2CoReO6,-2.468134777250001
mp-10470,NbSiRh,-0.8408476541666641
mp-29789,Lu(ClO4)3,-0.976230328541671
mp-505499,Ta4BTe8,-0.670550465910253
mp-505357,InSeI,-0.8192689011284711
mp-510274,Zr2Si4Ru3,-0.9180839286111101
mp-972424,TbYbPt2,-1.355620461249998
mp-9716,TiBO3,-3.000503655499999
mp-764415,MnFeCo(PO4)3,-2.245307821492199
mp-768041,Li4MnCr3(PO4)4,-2.582051234636992
mp-554649,Na3NiF6,-2.621251543
mp-1853,Sr3P14,-0.543164580686272
mp-971775,ZnPb3,0.12077277000000201
mp-774306,LiCrPO5,-2.429274706622022
mp-707105,Li3B5(HO5)2,-2.571423845416667
mp-780874,KLi2Mn2O4,-1.908194573308748
mp-755856,Mg2SnO4,-2.592038880714285
mp-761090,Na3BiO3,-1.6748807180911331
mp-558977,LaErS3,-2.448090529833332
mp-1020707,Rb2GeB4O9,-2.655388389947917
mp-696485,Na2TeHSO5F3,-2.141241196013484
mp-12961,YAlPd,-0.905026772222223
mp-767604,Li12Nb14ZnO42,-2.875037917101449
mp-4138,Rb2CO3,-2.084387825
mp-772787,Gd2P4O13,-3.140331095977445
mp-23496,CsAg2I3,-0.892772558831416
mp-770506,V5BO9,-2.5398069682777793
mp-606691,KU2P3O14,-3.086994967808926
mp-555700,SiO2,-3.25534563375
mp-30412,Pb3Au,-0.06182607312499701
mp-11605,KTb2CuS4,-1.907721698197915
mp-501,TaSe2,-0.9196565076527791
mp-865355,Zn3Pt,-0.399549332499998
mp-865779,Ga2CoRu,-0.27669656125000003
mp-540611,RbNd(PO3)4,-2.916194904087301
mp-540760,FePCl8,-1.204013893464289
mp-571107,Er4InRh,-0.566038751527778
mp-974789,Rb3Sn,0.012934338125000002
mp-27018,SnPO4,-2.353118185982142
mp-3378,SrHfO3,-3.812364923999999
mp-9636,CsSbF6,-2.922387598706896
mp-541240,Sb3O2F5,-2.403214531999999
mp-973111,In,0.007146905000002
mp-865604,Li5Mg,-0.014123781388889001
mp-540482,LiCrP2O7,-2.505832990238093
mp-772199,Rb3ClO,-1.5525987785000002
mp-31924,LiMnP2O7,-2.565324869822735
mp-709350,Sr5As5HO18,-2.458472760905173
mp-12011,KTbGeS4,-1.5361206427023801
mp-560608,Nd10S14O,-2.467292901599998
mp-10032,Ge2Os,-0.083478636666669
mp-642991,TbH3(CO2)3,-1.752768916570512
mp-849478,Mn6O5F7,-2.403495790699234
mp-999177,SmGa,-0.715868374999999
mp-554543,SiO2,-3.251487015416666
mp-21433,TbTiGe,-0.806892828888888
mp-817,TmTl3,-0.23022770749999902
mp-756272,LaDyO3,-3.899716204333333
mp-18352,HfTe3O8,-2.146241022708333
mp-723426,NaLiP2(H4O5)2,-1.893755671469621
mp-3467,SmB2Ru3,-0.479623629999998
mp-555965,Li2ZnSn3O8,-2.133102561666666
mp-22913,CuBr,-0.517612222499999
mp-779904,Ni(IO3)2,-0.903004540833333
mp-505759,Zr5Sb3,-0.7749566481249981
mp-753490,TiCuGe,-0.37582612805555704
mp-754628,WN2,-0.37306886937500305
mp-571580,Er14(InPd)3,-0.476182375874997
mp-1007854,FeNi3,0.049747635000001005
mp-607806,Ho3Se3N,-2.16404069513393
mp-546790,LaCuTeO,-2.177470654166667
mp-605461,K3UH6C5SNO13,-1.719634886558334
mp-9939,Hf2Ge,-0.7210517066666711
mp-9008,RbTeAu,-0.683386598055555
mp-12564,LiSbAu,-0.323932655202019
mp-850933,Fe4O7F,-1.452334737083333
mp-680539,K11(In2Bi3)3,-0.320181209028843
mp-11905,LiNd2IrO6,-2.717315583833334
mp-6595,Sr3CuPtO6,-2.237133783636364
mp-863659,LiScHg2,-0.438690244166668
mp-4938,ScCo3B2,-0.533771542222221
mp-28610,CsAgCl3,-1.261134702499998
mp-567462,Sc3RhC4,-0.49001486374999903
mp-861913,LiDy2Al,-0.24952011416666703
mp-721901,K2B4H8O11,-2.058823672146666
mp-16884,RbEr2Cu3Se5,-1.323529165838068
mp-560882,SeO2,-1.146464365364584
mp-675300,Ho2Zr2O7,-3.773321610454543
mp-4297,U(GePd)2,-0.455808481999997
mp-973535,K3Sc,0.6149614614999991
mp-981247,Zn7Sb8Ru9,-0.19614346999999901
mp-22896,LaCl3,-2.703267628124999
mp-5769,Li3SbO4,-2.213717543749994
mp-23651,Na4Al3Ge3IO12,-2.562604692196403
mp-972323,TaNbTc2,-0.47445536933333005
mp-3633,Er(Al2Fe)4,-0.431417930769227
mp-770611,Li2CoH8(SO6)2,-1.612558675266667
mp-30732,HoTlPd,-0.725201990555553
mp-30603,ZrCu5,-0.11645303166666601
mp-558111,Rb2MnF6,-2.9007038969923373
mp-36982,Mg(TiS2)8,-1.619739917266666
mp-979266,Sm3Al,-0.23774359
mp-10922,Mg2Co12P7,-0.607412850119046
mp-541878,K2Ge2S5,-1.040038007166665
mp-1018047,LaSn,-0.9260396749999981
mp-1018753,LaTlCd,-0.348593441111115
mp-21156,TbPb3,-0.29645188166666503
mp-772925,Li4Ti5O12,-3.178991151666666
mp-24461,H12OsN5Cl3O,-0.69826797659091
mp-775277,K(WO3)3,-2.222816305557692
mp-12759,Zn2CuAu,-0.155826837499998
mp-560625,RePbClO4,-1.979582375357142
mp-556001,NaBeSi3HO8,-2.925861073223522
mp-983550,Pa3Nb,0.17558297749999902
mp-779582,Rb19O3,-0.45083646534090904
mp-30719,Mg2Hg,-0.172939820833335
mp-632656,HoH3,-0.722255808645833
mp-982017,PrYTl2,-0.478961765416663
mp-382,Th3As4,-1.557892197142848
mp-770894,Li2CrPO4F,-2.68926614806217
mp-981397,YbPrMg2,-0.09472888416666601
mp-542593,NdGe2Ir,-0.7998636449999981
mp-10950,Sr2Cu(PO4)2,-2.883831950714285
mp-28639,Tl2GeTe5,-0.4114027853125
mp-4088,La(FeSi)2,-0.584098419
mp-1017,Zr3O,-1.538735771875001
mp-2282,NiS2,-0.5763651724999991
mp-989522,Mg6Bi2PN,-0.473009168964286
mp-8128,NaNdO2,-2.9878878134698272
mp-766289,ZrU9O20,-3.7327682663333333
mp-555999,Np(IO3)4,-1.269658774044118
mp-28299,USe2O7,-2.16542318621875
mp-12900,HoSi,-0.8964365874999981
mp-570885,LaCoSb3,-0.7180369884999991
mp-769481,Y4Ga2O9,-3.399144623
mp-8184,Li2ZnGeO4,-2.225629343333333
mp-687090,Hf(MoO4)2,-2.519785754393939
mp-762988,LiMnF3,-2.946967953252874
mp-23408,Tl4Bi2S5,-0.6316266425757591
mp-23033,Sr2NCl,-1.640572135312501
mp-780087,LiMnSiO4,-2.587682251609197
mp-631353,MnRePt,0.5821484698563211
mp-32689,Pr2Se3,-2.190777713854166
mp-989604,YMoN3,-1.0928410905
mp-542158,FeNiPO5,-2.077506058080357
mp-862555,LiY2Al,-0.261960931666667
mp-764985,Li8Fe3Co7O20,-1.697071193596491
mp-510459,MnVCuO4,-1.9274052068472902
mp-754500,LiSn2P4H3O16,-2.274265972525182
mp-11521,ScNi,-0.5071770974999991
mp-774390,Mn3SbO8,-1.774151544899425
mp-36086,Li3NbO4,-2.649875683749999
mp-722245,K2H2C2S2N2O,-0.765369383136364
mp-673174,Fe8N3,-0.15444952439393902
mp-568949,TlBr,-1.151021851666669
mp-2338,TbZn2,-0.44699698333333504
mp-559614,Sr2ZnReO6,-2.55876761175
mp-667292,K2MgSi5O12,-3.11806652385
mp-766367,Dy5(ReO6)2,-3.354430200175437
mp-19814,NiAs2,-0.280906666666666
mp-773463,K2CoPCO7,-2.099865582011904
mp-753459,Nb3O7F,-3.055118828181817
mp-976151,PrErMg2,-0.07227551041666501
mp-4793,U(SiPd)2,-0.734372137000002
mp-20293,SmGePt,-1.087421594999999
mp-11115,RbCuPdSe5,-0.722680079277343
mp-6600,K2Zr(SiO3)3,-3.221192822633334
mp-775713,NbNi3(PO4)4,-2.299778542440477
mp-770558,MnP2O7,-2.381213178721675
mp-697676,H2Pb4SO8,-1.6266506639999991
mp-20298,SmIn,-0.624586029999999
mp-643066,ZnH2SO5,-1.6927066750000002
mp-865524,YCdPt2,-0.789851937499999
mp-999566,Mn2CuSb,0.132716110775863
mp-759071,LiSb(PO3)4,-2.457222104272486
mp-26650,LiSnP2O7,-2.451150581147186
mp-1016883,ZrZnO3,-2.246558206999999
mp-2286,Li2Se,-1.451676987465277
mp-3262,Tm(CoSi)2,-0.793586902
mp-5273,KPrTe2,-1.684160613854167
mp-975909,LiAu3,-0.37749018416666
mp-961708,NbInPt,0.051087372583339
mp-763519,Li4Mn3Nb2Co3O16,-2.158112120611658
mp-775180,Li2Co3WO8,-1.7097354754761902
mp-1009460,Hf,0.032178136666658
mp-26875,Li2CuPO4,-2.29035373735119
mp-23126,KAs4IO6,-1.660899759354167
mp-676951,Dy3NbO7,-3.699847019090907
mp-558045,NaLi2PO4,-2.683879766898603
mp-773330,Li2Mn3SnO8,-2.007573014675697
mp-30032,TlIO4,-0.8225861330555571
mp-760188,Nb3O7F,-3.074741299318181
mp-704197,Li2Mo(PO4)2,-2.536987492188644
mp-977435,ZrAlRh2,-0.9449341024999991
mp-849429,Li3Co2OF5,-2.496394127272727
mp-978829,Sm3Hf,0.180307236250001
mp-758379,Y11Ta5O28,-3.7348426140151503
mp-777787,HoAsO4,-2.7783984045833323
mp-853240,LiCoO2,-1.708760094583333
mp-24405,LiCd4Ge5HO15,-1.900638483060897
mp-4105,Ho(CuSi)2,-0.6250300229999991
mp-850914,Li4CrF6,-3.014324188333332
mp-22887,EuCl2,-2.6734610466666693
mp-573202,K3Ta2Ag3S8,-1.153003338213539
mp-975646,PrZnSbO,-1.8622293629166662
mp-779046,Li5Cu(PO4)2,-2.520201857872024
mp-625560,H7BrO3,-1.150615766704545
mp-571617,Sr2LiInGe2,-0.5268599433333321
mp-21581,Tb(FeSn)6,-0.113974608974358
mp-560670,MgSeO4,-1.8689105583072911
mp-972205,V2MoOs,-0.37199957250000104
mp-21884,EuGa4,-0.5073272430000031
mp-631494,SrCrPd2,0.12326748000000001
mp-14169,Li4UF8,-3.501945456474365
mp-13664,Sr2Ta2O7,-3.499453334060604
mp-1402,SmNi2,-0.36313556833333305
mp-770394,Na5Fe2P2(CO7)2,-2.25546569404729
mp-980648,TmThRu2,-0.47941711749999705
mp-775782,Na4Sn2C4SO16,-1.8970324325191572
mp-30872,ThSn2,-0.5878298616666621
mp-8804,Li6MoN4,-0.8591241350000001
mp-862679,TaZn2,-0.143206917861112
mp-17682,Zr2Fe,-0.080236007083332
mp-1018946,PrZnGa,-0.535190169722222
mp-863869,Li3Mn3FeO8,-1.986580084252874
mp-21294,Y2In,-0.49457612333333106
mp-40685,NaSm3Ti2(SbO7)2,-3.118503749229363
mp-773721,Mn2Cu(PO4)3,-2.199745601655036
mp-1009008,LaTe,-1.675274395833334
mp-769490,Na3Ni2P2(CO7)2,-1.972783304279287
mp-778268,Ti3CrSb2(PO4)6,-2.6672906113293653
mp-9380,SrGe4O9,-2.338752899642857
mp-557748,SbIrC2(OF3)2,-1.9303319701041661
mp-975586,Pr3Y,0.046958105000001006
mp-1007758,HfCd,-0.09590878000000201
mp-623027,Pr2Ga,-0.44757079527777405
mp-557028,Sr2LaTa3O11,-3.55495382952941
mp-772890,Np(SeO3)2,-2.000197782604168
mp-20935,ZrSnIr,-0.8368851283333351
mp-753022,NaGa5O8,-2.14641519991995
mp-773906,KNaZrSi3H4O11,-2.652387126839463
mp-10614,SrLiP,-1.05522757654762
mp-3034,MgAl2Cu,-0.17485990875000001
mp-769922,V2SiO4,-2.550871035000001
mp-486,NiP2,-0.401355698650792
mp-561124,Ho3Se4O12F,-2.481115203718748
mp-862791,GaCuPt2,-0.42677129687499904
mp-531792,LuZr3F15,-4.119150342061405
mp-760747,Ti11O18,-3.34912974091954
mp-541911,HfNCl,-2.150861657083332
mp-28853,LaAuO3,-2.314873115500002
mp-560358,Zr2P2O9,-3.297215261868131
mp-7086,RbFeSe2,-0.8967297855468761
mp-631464,KBePt,0.747810549249999
mp-680689,SrTi2O5,-3.288349918333333
mp-759534,LiBi2(SO4)3,-1.831758991157407
mp-973977,HoSnO3,-2.131808972999998
mp-675751,Zr7N2O11,-3.40162491475
mp-29696,K4Sb2O3,-1.420519377111111
mp-975814,Mo3H,0.8458279112499981
mp-15182,Rb2LiCo(CN)6,-0.286376732395833
mp-974525,ReAg3,0.8944323137499981
mp-865588,Y2CuRu,-0.29852865250000005
mp-7880,Sr(SiAg)2,-0.3030315
mp-768959,Na4Sb2C4SO16,-1.886380310296934
mp-15408,KGaF4,-3.047392630166667
mp-867848,LaMgCd2,-0.31252593499999903
mp-1020125,MgSiO3,-3.219875766749999
mp-28294,Sb11F43,-2.661460519722222
mp-980038,Tl3Ru,0.65272582
mp-22953,YbCuBi,-0.365391863333338
mp-11172,LiIrF6,-2.024642520833334
mp-971678,Na3Ni2SbO6,-1.783398434511494
mp-17495,RbTiP2O7,-2.878090893419913
mp-762344,Na8Nb5O14,-2.479611486149425
mp-770538,Mn2PO5,-2.410766014438117
mp-780287,Li3Mn2(SiO4)2,-2.591280778724138
mp-1604,Pt3O4,-0.8267827357142831
mp-761324,LiSiNiO4,-2.235122678333333
mp-18803,Na2WO4,-2.214918839679804
mp-731,Mg3Hg,-0.114670318125
mp-3827,KFeS2,-0.9958706005625001
mp-13937,Sr2TbReO6,-2.9914924659166653
mp-206,Tb5Si3,-0.7691735312500001
mp-568509,Er(CoB)2,-0.569724017666666
mp-21401,TbSnPd,-0.9220374080555521
mp-757479,Li2Sn(PO3)6,-2.486117642574956
mp-15794,LiYSe2,-1.968470493697916
mp-973278,KSr3,0.108586906749999
mp-558115,SiO2,-3.258587647666667
mp-673706,Li7(Mo3Se4)4,-0.875019070333334
mp-550514,LaTaN2O,-2.215536883466666
mp-15293,TmTiGe,-0.6958948594444481
mp-27403,LiUF5,-3.820240795238096
mp-13938,Sr2DyReO6,-2.999338294416667
mp-18710,RbSm2Ag3Se5,-1.33576371947443
mp-631573,Re2AuSe,0.869936454296869
mp-26248,Li4Cu(PO4)2,-2.458453795841269
mp-759341,Li4Cu(PO3)6,-2.4870435631445
mp-604,Nb2O5,-3.017570597142858
mp-849335,Ti3N2O3,-2.651225216250001
mp-22397,Nd(GeRu)2,-0.7256004555000001
mp-9852,TmP5,-0.616732226646824
mp-3507,Lu(SiPd)2,-0.9226481393333331
mp-27801,TlAgI2,-0.634143947500001
mp-755210,Y4Cu2O7,-3.085859221923076
mp-867701,Li6CuS4,-1.222398993636363
mp-554508,KYP2O7,-3.126331969230519
mp-763535,LiP5W3O19,-2.431489804340986
mp-19937,NpSi,-0.391938020062497
mp-975958,KNaMo(OF2)2,-2.546651936514367
mp-29151,Li5NCl2,-1.269969514635415
mp-3698,SrAlSi,-0.455122275
mp-28110,Rb2PtI6,-1.033037743888887
mp-10636,SrSb2,-0.7955539666666661
mp-753546,Li8TiS6,-1.526205142666666
mp-865120,NaPaO3,-3.440691451275864
mp-1018738,LaAl2BRu2,-0.642257339027779
mp-17803,Nb2Tl4S11,-0.8672512082843151
mp-756875,Li4NbCu3O8,-1.854851992083333
mp-13774,NaNdSiO4,-3.287718564601777
mp-754415,Tb3NbO7,-3.742577128636361
mp-8962,Rb2HgF4,-2.427841051071428
mp-1019089,KMgAs,-0.6617146915833331
mp-20716,PbSeO3,-1.455736836468751
mp-3546,Tb(Al2Fe)4,-0.429442835128214
mp-980940,Ti3N,0.24481105989583402
mp-771185,K2Ge2O5,-2.142987361240741
mp-561491,KNaMg2Si4(O5F)2,-3.220701618931466
mp-694979,Na2TiFe(PO4)3,-2.718061147106343
mp-560673,NaPr2S2O8F3,-2.9950465137320403
mp-504593,Pb2CCl2O3,-1.7158688628125
mp-559150,Na9ZrP4ClO16,-2.69322296454791
mp-40830,NaSr3LaTi5O15,-3.501803329321839
mp-12781,ScAl2Ni,-0.656923293749999
mp-680387,PrYSi2O7,-3.173999447878787
mp-3727,Nd3NbO7,-3.634401944318181
mp-849430,Li8MnFe7(PO4)8,-2.497274935745367
mp-540927,UPCl10,-1.3345824019146821
mp-22220,LaLuO3,-3.988481201333332
mp-707182,UAsH9O10,-1.785898705773808
mp-10738,SmPPt,-1.341192546547616
mp-694970,SrLa7Cu4(SnO6)4,-2.709066436125
mp-531,K4Si23,-0.029964210555555003
mp-761293,ZrCoO3,-2.6998381995000003
mp-555609,Sr9Zn4(CuO7)2,-2.492094681034483
mp-2676,TaBe2,-0.185840904111111
mp-976263,Li3Nb,0.703948747499999
mp-7388,NaAuF4,-1.883067553333333
mp-35264,Pr5AgSe8,-1.9467100670535742
mp-18203,KGe2(PO4)3,-2.480150478676586
mp-558943,LiUAsO6,-2.709139970648147
mp-976,V6Si5,-0.557532025454546
mp-680578,Sm4Si3Pd4,-0.9608934156818151
mp-698609,Sr7PrFe4(MoO6)4,-2.563384927041666
mp-755109,YErO3,-3.907949494999999
mp-569103,Mg3Hg,-0.10515078937500001
mp-581143,RuOF4,-1.794424034166667
mp-5392,Mg2SiO4,-2.8702787592857133
mp-777814,Na6Sn2O7,-1.86815817021839
mp-771965,Sb2P4H3O16,-2.105372147292857
mp-765917,LiV2OF5,-3.010726389629629
mp-974030,LaRh3,-0.5258433475000001
mp-571641,PrCdPd,-0.645003518333335
mp-1072,Nb5Ga13,-0.289393720238093
mp-5478,TlPd3O4,-0.9432176497916661
mp-505693,Mg2GeB2Rh5,-0.632307745833331
mp-1061,PrPt2,-1.017723627222225
mp-22508,YMn12,0.071023091246685
mp-765702,Mn6O7F5,-2.211237113199234
mp-560158,Na3Zn(BO2)5,-2.620949977498515
mp-559115,P2RhClF6,-2.382017494303571
mp-8771,Lu2(NiB2)3,-0.59830112530303
mp-555838,SnPO3F,-2.502231003273809
mp-6948,KNaO,-1.3149112078764351
mp-1695,Y2C3,-0.23707986600000003
mp-616587,RbPO3,-2.6785896616785703
mp-698032,Na3H7Ru,-0.338394054659091
mp-1018013,Ti2InNi,-0.07275007833333201
mp-567431,ThCl4,-2.419985290999997
mp-757590,LiSnPO4,-2.406050083460884
mp-766847,WOF3,-2.473673523999999
mp-977455,PaAgO3,-2.8303952513333472
mp-1001836,MnGa,-0.27264122224137904
mp-559587,CuSb2BrO3,-1.3903336967857132
mp-972130,Tl3Cr,0.45016056000000004
mp-3489,Nd(FeSi)2,-0.5953175214999981
mp-560161,ZnCu3H6(ClO3)2,-1.171645663749999
mp-5868,Sr3Ru2O7,-2.3549317370833602
mp-28481,Ti(ClO4)4,-0.7699851751587301
mp-667380,Rb3Nd2(NO3)9,-1.470098460853658
mp-26701,Li3Sn2(PO4)3,-2.518207703196427
mp-12923,SrPIr,-1.113283179325397
mp-775679,Li2Mn3CrO8,-2.143387065925697
mp-976280,LiBr,-1.8358945341666661
mp-21569,HfReSi2,-0.579370884999999
mp-756347,Y2Pt2O7,-2.432750706363636
mp-780171,HgH10N2Cl4O,-0.8848649138888881
mp-5338,ZnSeO3,-1.5024296932187502
mp-3118,Mg3TeO6,-2.539839539666666
mp-31252,La5(AlBr)4,-1.271833096923078
mp-30495,SmCd2,-0.308374655
mp-20920,TbIn3,-0.5382134275
mp-553923,K2AgSbS4,-0.7550770369713521
mp-10862,Ho2Ge6Pd,-0.486534181111109
mp-754869,Sr(IO3)2,-1.514020036666667
mp-776688,V2O3,-2.439165585499999
mp-567394,Ga(MoSe2)4,-0.875350558173076
mp-4434,TbAlO3,-3.739704172833333
mp-680679,K2Ho4Cu4S9,-1.651837624315787
mp-6384,RbSO2F,-2.187014182999999
mp-695963,K2NaH10IO10,-1.374624272849137
mp-773067,Er3TaO7,-3.86699120771212
mp-777550,LiFeF4,-2.796616109305555
mp-568570,CsSnI3,-1.170477158931032
mp-29102,Hg3TeCl4,-0.621929513125003
mp-684083,Sb(PO3)4,-2.339184834915966
mp-19136,TbFe3(BO3)4,-2.5794058921666663
mp-753090,Li2Cu2F7,-2.233647809848495
mp-16626,SmAl7Au3,-0.5201712418181801
mp-568173,LaMgSi2,-0.5288990062500011
mp-18823,K2BaCo(NO2)6,-1.213394558840909
mp-5508,Th(SiPd)2,-0.965063709999998
mp-570718,Y2Co17,-0.065373837631579
mp-561187,NdGa3(BO3)4,-2.773980556833334
mp-547517,Sr2Cu3(ClO2)2,-1.8853649245454551
mp-23311,EuBr2,-2.393062800000004
mp-557904,SbSe2S(NF3)2,-1.484182544557292
mp-720254,Li2H4(SO4)3,-1.809534580436508
mp-15108,RbSnAsO5,-2.022742533281251
mp-29825,K2Si2O5,-2.9006948921666673
mp-863664,Pm2CuGe,-0.510325878750002
mp-12753,GdAl,-0.371217619999999
mp-16848,Tl3PS4,-0.672541053080357
mp-4247,NaZnSb,-0.40256350166666705
mp-769159,LiCuPH2O5,-1.872863196547619
mp-6922,SiO2,-3.263754841666668