material_id,formula,formation_energy
mp-19470,Na4Ni7(PO4)6,-2.235873041301814
mp-19915,Sr4In2N,-0.5339774569047601
mp-20337,ZrPbO3,-2.843258278999999
mp-571100,CsAgBr2,-1.351501942830461
mp-31510,NbCuTe2,-0.5334687008333321
mp-568135,Cs4Sc6CCl13,-2.190213643067528
mp-7634,Cu3As,0.068055787083331
mp-643735,H8Pd(NCl3)2,-0.822487205
mp-776758,Li2Fe3F8,-2.702993572820513
mp-30445,ZrBe13,-0.19806794892857102
mp-862338,Sc2CuRu,-0.47142781999999805
mp-752407,Dy2Ge2O7,-3.044962212575757
mp-570196,Zr5Sb4,-0.7697531511111131
mp-28161,Na3P6N11,-0.7524559954747531
mp-781050,Li4CrSb(TeO6)2,-1.960649933833333
mp-558298,Zn3TeAs2Pb3O14,-1.75472284094203
mp-655489,Pb4SeBr6,-1.149333219303976
mp-23706,YH3,-0.7152201090624991
mp-568106,Mg41Al67,0.040276533657407
mp-30357,Sr3Ag2,-0.215496192
mp-21415,Dy(NiGe)2,-0.688793380333333
mp-667192,La4C5Cl2,-0.944688601818183
mp-763199,LiMnF4,-2.900065237710727
mp-769617,Li2VCrO4,-2.43104627875
mp-531130,TlBi25O39,-1.595509662897437
mp-20754,LiCeSn2,-0.502503509583331
mp-865446,Lu2AgHg,-0.46645882395833305
mp-720835,Mg5H10(C2O9)2,-2.000697117500001
mp-696,SiPt,-0.6970136237499991
mp-24007,Rb2HBrO,-1.720666494250001
mp-772801,LuBiO3,-2.823910251333335
mp-770604,Li2CoH8(CO5)2,-1.5285604437681162
mp-862672,LiY2Rh,-0.45105959583333105
mp-11257,SmAu,-0.783378910000001
mp-8586,InBF4,-2.6812385733333333
mp-621592,YPbAu,-0.8253234799999991
mp-849277,Li2CuP3(HO5)2,-2.203941636560846
mp-20489,SrPbO3,-2.155550595499999
mp-1975,TmN,-2.152056234375003
mp-21005,GdIn,-0.565427714999998
mp-18429,KAg(NO3)2,-1.053053297391665
mp-11313,ZrCd3,-0.13189450124999802
mp-27915,K2BeO2,-2.1003341254
mp-765761,Li3Co3OF7,-2.499910721785714
mp-34140,Zn(FeO2)2,-1.721539311428571
mp-756933,TaTlO3,-2.679812909133335
mp-755470,Li2BiS2,-1.029778696333333
mp-862921,PmInRh2,-0.7133583468750011
mp-978304,Mg3Ta,0.37850996941666604
mp-971648,GaP,-0.026956208988096003
mp-173,MnAl6,-0.17369762541871903
mp-705340,LiVP2O7,-2.700689597510822
mp-972961,Sc2NiRh,-0.748820552499999
mp-571586,Nd(SiOs)2,-0.786530949500001
mp-2039,ScMn2,-0.168710104655171
mp-777902,Ti3Mn2Cu(PO4)6,-2.7628454728810903
mp-11175,LiZnPS4,-0.9466399625680261
mp-707536,KHSeO4,-1.503727016995535
mp-770700,Li2Ti3O7,-3.181542948888889
mp-1018129,Pt2W,-0.349503859999998
mp-18652,Sr3HoRhO6,-2.934729701818182
mp-8235,K2SiP2,-0.600256117690476
mp-542697,Rb2RuO4,-1.714723446785713
mp-997587,La7ScAl8O24,-3.653001103500001
mp-557918,KGaAs2O7,-1.938650839977273
mp-28676,S2O5F2,-1.802198334722221
mp-562230,Rb3(Cu4S3)2,-0.658363996323529
mp-28930,KC8,-0.046230124305555
mp-23386,Sn2SI2,-0.7331438765
mp-976867,Pm3I,-0.21193199812500002
mp-766625,LiFe2(BO3)2,-2.257638536060606
mp-972551,U3Nb,0.341514542500007
mp-864936,MnGeRu2,-0.26884713573275704
mp-1009817,TaC,-0.246991968666666
mp-19081,MnMoO4,-2.066809508821824
mp-10015,SiOs,-0.36535291750000104
mp-558163,Pb(SeO3)2,-1.24906093329861
mp-766015,SbOF,-2.178431087777778
mp-559734,UOF4,-3.657058043611109
mp-642650,LiP(HO)2,-1.6766460025793641
mp-675122,Na2UI6,-1.211880800306512
mp-1019898,LaPO4,-3.481594635773809
mp-6867,KCaCO3F,-2.790271634607143
mp-554948,NaI(OF)2,-1.818324551896552
mp-8939,Si2W,-0.232044207777777
mp-556422,NbCl3O,-2.129658726
mp-774456,InH11S2O13,-1.505936144645062
mp-763149,LiMnF3,-3.013379699752875
mp-774535,TiNb3(PO4)6,-2.9065197497408963
mp-675778,NaY2F7,-4.156960444499999
mp-755549,Y2TeO6,-2.928488759074074
mp-569282,LiCa10MgSb9,-1.048838448015872
mp-561242,TaAgS3,-0.9553398292999981
mp-755047,Ti3N2O3,-2.628146902500001
mp-1017985,TiAg,-0.054529908333332
mp-999308,OsC,0.9277737837499981
mp-5177,LuSnAu,-0.931271765555555
mp-29370,Na3BP2,-0.44440300307539704
mp-850410,Li2Mn3(BO3)3,-2.45492535076234
mp-15567,Na3AuS2,-1.061003663189655
mp-774929,Na5Bi2P(CO4)4,-2.005305545947836
mp-971753,ZnGe3,0.268869641249999
mp-30845,SmPt3,-0.8953327887499991
mp-504862,Ti4Cd(CuO4)3,-2.455855152166667
mp-21489,Rb2PbO3,-1.554828175833331
mp-2582,TiSi2,-0.510677127222223
mp-980044,YbPrCd2,-0.355002301666665
mp-675419,LiPrS2,-1.997952413749999
mp-669427,RbCuPO4,-2.139787241020408
mp-1937,YbCu,-0.31568036875000105
mp-976334,Li3Tc,0.6144726837499991
mp-561317,Rb2NiF4,-2.710891979285714
mp-10558,La3(NbN3)2,-1.538639261590909
mp-4823,Na2PdC2,0.045265634999998
mp-28734,Zr6CoCl15,-1.9129251962500002
mp-2971,U(CrC)4,-0.16759126333333502
mp-972831,SiGeN2O,-1.3629342370000002
mp-770280,Li6Bi(BO3)3,-2.489797311052632
mp-755373,Lu2GeO5,-3.321142171041667
mp-767392,Li7Ti7Nb5O30,-3.08095637197279
mp-625184,Sr(HO)2,-2.112952643
mp-531358,Sr17(Ta5S21)2,-1.849146079396134
mp-839,V3Au,-0.088406430000002
mp-19492,LiMn(PO3)3,-2.633280241263781
mp-867524,KH4O4F,-1.286420728725
mp-865187,MgFeRh2,-0.29181303875
mp-646297,Hg4Pb2N6O19,-0.9186238248387101
mp-756431,Li2CuSnO4,-1.841039110208333
mp-780396,SrCa2I6,-1.880211539444444
mp-29343,NaCu3F7,-2.036233973636364
mp-555230,Rb2YGa(SiO3)4,-3.136539828249999
mp-865912,LiZn2Rh,-0.42543464416666504
mp-14659,KAsSe2,-0.846891826734375
mp-22089,Hg2Os2O7,-1.18980214
mp-648984,LaSiAs3,-0.7573702562500011
mp-7022,V5As3,-0.48278809718750004
mp-764234,Li13Mn3Nb2O16,-2.320507379621366
mp-28289,SiH3F,-0.944154362249999
mp-13322,LiGeRh2,-0.6493432920833331
mp-697317,Rb2YTi(PO4)3,-3.086774677487468
mp-757407,Sr2Tl2O5,-2.030181492962967
mp-30047,Sn2Mo,0.06053427666666401
mp-477,SmGa2,-0.8062252700000011
mp-9518,NdZnPO,-1.996526119285714
mp-753,ZnSb,-0.06144775499999901
mp-850932,Mn3(OF2)2,-2.515722083199234
mp-617352,Te3WICl6,-0.896703567272727
mp-554896,SbXe2OF15,-1.280297388947368
mp-997043,PbAuO2,-0.9572818112499981
mp-649177,ReTe5O6F25,-2.221833516171171
mp-555394,SiO2,1.516117856249999
mp-721727,NaBH8O7,-1.5129850167968222
mp-867722,PrNdO2,-3.055129702291665
mp-677372,Ti10Bi(Pb3O10)3,-2.701905165066666
mp-5729,YAgSn,-0.5947807188888861
mp-973142,ScZn2Pd,-0.5437562837499991
mp-27829,Rb2SeCl6,-1.534144714149305
mp-769366,Nd3SbO7,-3.304870114772725
mp-706,HgF,-1.314067998750001
mp-540231,Li2FeP2O7,-2.551300822996031
mp-559356,Tl3AsS3,-0.528355104821433
mp-541021,SbAsPd5,-0.377385841309522
mp-980667,SrBr3,-1.6901552450000001
mp-864921,MgZrIr2,-0.7444724137499971
mp-778697,LiMnF3,-2.993204207502875
mp-24574,NdH5(SeO4)2,-1.7186903814648442
mp-1009049,IrN2,0.7889554699999951
mp-42190,K2NaTiOF5,-3.319039354921264
mp-36252,Nd5CuSe8,-1.9139411526785581
mp-510036,Fe2Cu(P2O7)2,-2.327981111598638
mp-28931,Ga2TeO6,-1.928704180185184
mp-757470,K2ZnP4(HO2)8,-2.108493468808756
mp-676881,Ho4Zr3O12,-3.949980786052633
mp-720222,Na3CaAl3Si3SO16,-3.011939487468071
mp-571469,Sm3Mg13Zn30,-0.217528778043478
mp-766823,Li7Ti11O24,-3.227670473333347
mp-560170,Nd5Te2Cl3O10,-3.036888929041666
mp-22785,SmMnB4,-0.596046508247127
mp-6386,K2ZnGeO4,-2.044669127593749
mp-30957,Pr(PO3)3,-2.984249975815019
mp-3540,Li2SnO3,-2.224686791527778
mp-865875,Li3Ag,-0.12234537624999901
mp-867871,SmMgZn2,-0.34320936499999904
mp-2670,Nb3Ga,-0.22383726625000103
mp-975784,PrY3,0.07741293708333401
mp-651961,Nb4Te17I4,-0.38973905813333404
mp-20328,U3Se4,-1.354177777767853
mp-1018152,LuAu2,-0.9748493022222241
mp-21486,Tm2In,-0.45745120333333406
mp-862746,Sr2LiTl,-0.282441951666669
mp-510293,Pb3SeO5,-1.478446876371529
mp-1413,P2Ru,-0.6742735869841281
mp-759433,Li3CuF5,-2.6583235177777773
mp-974744,NdZn2Ag,-0.29059854229166504
mp-755716,HoHO2,-2.925395225312498
mp-13163,TbZnSn,-0.602462343055556
mp-10025,SiRu2,-0.399369942499999
mp-769074,Na2LiTi3Al(PO4)6,-2.988804707133759
mp-10755,TiFeSb,-0.431601187777778
mp-974940,Rb3Mg,0.19588861062499902
mp-541582,ReSe2,-0.46316581770832904
mp-735063,H7CSN3O4,-0.959446037265625
mp-29265,Nd2(SO4)3,-2.620333949852941
mp-696129,Li10Si(PS6)2,-1.232495127104761
mp-560026,Mg5B3O9F,-3.102743787777778
mp-12990,Ti2AlC,-0.6992181366666661
mp-31517,Ta2CoO6,-2.908913289962972
mp-976047,Li3Hg,-0.295252721875
mp-974411,Re3Tc,0.0016607293749970001
mp-29384,Rb3TlCl6,-1.8567218265833332
mp-29075,Ga3Bi5Cl12,-1.2283583563750051
mp-542140,Ta2Tl4Se11,-0.5799663702561281
mp-23238,Ta3I7,-0.7386289999500051
mp-865708,LiSm2Ru,-0.20588268791666603
mp-757021,KGdO2,-3.0375402743125
mp-9722,Na2LiGaAs2,-0.5484412151819931
mp-770701,Li2Si4NiO10,-2.833051193921569
mp-555524,Na4MgC6(SN)6,-0.552722943283357
mp-1009018,InAg,0.054609407500002004
mp-555034,TeAs(IF2)3,-1.7736170244696972
mp-504646,In5(BiS4)3,-0.5385584668124941
mp-27684,Tl4O3,-0.9325564547619061
mp-541692,Na2In2Sb3,-0.38532035044642804
mp-772826,K2LiTi2(AsO5)2,-2.462361621735294
mp-562102,K2S2O7,-2.115194569045453
mp-28315,Rb4CdBr6,-1.823142556363636
mp-770736,Na4Cr2As(CO4)4,-1.9176765782598992
mp-776315,Zr2N2O,-2.334555375999997
mp-27668,Mg2Ga5,-0.11567534178571401
mp-568730,Ge4Te7As2,-0.279775686282051
mp-2698,YCu2,-0.246509470000001
mp-104,Sb,0.0
mp-763507,LiCoGeO4,-1.8404375140476201
mp-22329,NaNd2OsO6,-2.74630087513793
mp-571662,KLa(PSe3)2,-1.134322814809821
mp-558801,K2Pr4Cl9O2,-2.809752698598039
mp-680760,In4Br7,-1.104823382424239
mp-865482,VTc2Ge,-0.30462335125
mp-16872,RbLi2Ga2(BO3)3,-2.601094877745099
mp-19854,Pr2In,-0.45809861277777403
mp-19893,PbCO3,-1.8087626935
mp-775103,V4(OF3)3,-2.955324541875001
mp-690564,La2Mn3PbO9,-2.573619525252873
mp-554503,ZnS,-0.962185640870535
mp-27163,Ga(Ag3Se2)3,-0.24162111121093502
mp-3515,Y(CoB)2,-0.542693703666668
mp-28607,UReB3,-0.5540231669999961
mp-770762,La7(FeO8)2,-2.959681968200001
mp-1018792,LuS2,-1.828015669097221
mp-865529,Ti2NiIr,-0.6409541466666661
mp-30717,KHg2,-0.29651872958333503
mp-22997,PbBrCl,-1.411569416666664
mp-5165,Th(SiRu)2,-0.9927285760000011
mp-1013922,LiCr2P2O9,-2.517752778937073
mp-866030,EuSiO3,-3.071255264
mp-759873,Sb8O11F2,-1.803743424523809
mp-707376,NaNb14O36,-2.973788747674105
mp-5934,Yb(CuSi)2,-0.6025564789999971
mp-17750,Pr2SiTeO4,-3.2647732428125
mp-1201,Sb2Te3,-0.383199846000002
mp-977411,NpSnAu2,-0.5747862971874931
mp-571636,InCl,-0.9090301153125001
mp-999377,NbC,-0.15547794479167001
mp-9895,Tc2P3,-0.591620003785712
mp-23541,KSn2Br5,-1.364866687156252
mp-22010,Ta2CuO6,-2.7409152049629633
mp-1019787,K2NaZn(BO2)5,-2.645673866011192
mp-29501,Rb3AsSe16,-0.33040489437499904
mp-12009,YbCdCu4,-0.27627158083333303
mp-1009213,MnSb,0.14908770275862002
mp-758689,Li3CuF4,-2.645253740624999
mp-31292,Rb2PdSe16,-0.275857046973684
mp-765691,Mn6O5F7,-2.439321150977011
mp-770951,Li4Mn3Ni3(TeO8)2,-1.812229406444991
mp-675800,Li5TiP3,-0.866250379186509
mp-768486,Sb2(SO4)3,-1.7760132201470582
mp-1887,MoP2,-0.5421201086507941
mp-638086,K3Th2Cu3S7,-1.551446760616665
mp-782001,Li8La4TiNb7O28,-3.130875999583333
mp-18444,Sr3CuRhO6,-2.259917213636363
mp-505702,Pb2CO4,-1.719503321785714
mp-9998,MoAs,-0.266729003749999
mp-976380,Nd(NiSb)2,-0.7176162704999981
mp-707571,Na3SiH11O9,-1.66251996355783
mp-976806,NiAu3,0.08884928249999201
mp-23412,SbCl4F,-1.470033849583333
mp-850965,Li2Mn3(BO3)3,-2.448091022821163
mp-556882,SiO2,-3.262027181458334
mp-556672,Sn(SeO3)2,-1.512886412465277
mp-18957,NaMnO2,-2.025652015452586
mp-541684,K3AlP2,-0.6229684774503971
mp-13613,K2Mg2Be3F12,-3.5719270564210532
mp-600159,NiH4C2(S2N)2,-0.332203325192306
mp-625604,H9BrO4,-1.162926278482142
mp-23563,SiCl2O,-2.286550032916667
mp-691115,Li4Mn5O12,-2.053914901094687
mp-767480,Li3Cu2SbO6,-1.749991024166667
mp-776654,Li7V5O12,-2.462045172222222
mp-21093,SrPb,-0.701182394999996
mp-17394,NaYGeO4,-2.8548585309113292
mp-9587,TaMoN,-0.879287952444443
mp-768920,Ho2(SeO3)3,-2.326134200859374
mp-849384,Li11V8(PO4)12,-2.714357855979505
mp-559143,Pb3SO6,-1.758490110249997
mp-9389,HoCuGe,-0.681018591666665
mp-761135,Li3Sb2(PO4)3,-2.457609451196428
mp-774223,K2H2OsCCl5O2,-1.4529701574615381
mp-752443,Te(S2O7)2,-1.603722186929824
mp-553242,NdBi2BrO4,-2.3604428240625
mp-685099,IrSe3,-0.268489813379842
mp-756076,TbTaO4,-3.711087743583329
mp-37923,Sm5AgS8,-2.114166379761904
mp-613,Te2Pd3,-0.3376539
mp-983427,PmDyHg2,-0.571487456874997
mp-768468,In2Bi2O7,-1.6220403573484852
mp-16402,Tb4(SiS4)3,-1.6303586413815792
mp-14131,K2Pd(NO2)4,-1.072336661466666
mp-771771,Ta2PbO6,-2.96752349024074
mp-35718,Ta4SnO12,-2.861295597313725
mp-21964,TlCu7S4,-0.327612340902778
mp-30207,La3GaBr3,-1.645524405357139
mp-865472,VSiTc2,-0.5831301412499991
mp-850360,Mn8O13F3,-1.9476782376436792
mp-6606,SrYSi4N7,-1.498300949711541
mp-11033,TbAl7Au3,-0.5144454565151511
mp-733489,SbHC2NCl11,-0.8067526694531251
mp-554996,K5B19O31,-2.8321035239166683
mp-758147,LiCu(PO3)3,-2.339163448554422
mp-9798,Rb(SbSe2)2,-0.767052543124999
mp-21461,Rb2PbO3,-1.5558054725
mp-20548,U(Al5Fe)2,-0.26410529653845904
mp-559298,La5Sb4(O4F)3,-3.188700376562499
mp-1017519,IrC,1.66696995625
mp-865888,TiSnRu2,-0.6434530166666651
mp-683905,K3Ta2AsSe11,-1.024450614393995
mp-867590,LiCu2F5,-2.062520146145832
mp-5322,Pr3IrO7,-2.969154539090908
mp-694554,Mn3(P2O7)2,-2.489216411779263
mp-29767,Pt5Se4,-0.383304857916666
mp-976142,PrDyTl2,-0.468701494166666
mp-631435,ReRuBr,1.155546917499999
mp-979042,Tm2BeOs,-0.14370700625000402
mp-915,YCd,-0.315869994999999
mp-999376,NbPt,-0.6641852299999941
mp-625687,H9BrO4,-1.173326635624999
mp-998212,RbAgBr3,-1.209148418833332
mp-975609,Li2TlPb,-0.24842716999999903
mp-510494,La5Sn3,-0.8399457556250021
mp-772495,Na2SnAsCO7,-1.904882845021552
mp-8033,PuF3,-4.190149390937499
mp-16102,ZnAg2P2O7,-1.9803117193849191
mp-753054,KI(OF)2,-1.8215278995416662
mp-9387,TbCuGe,-0.7749101499999991
mp-772513,LiCr3O8,-1.8641171190277772
mp-12890,HfU3Sb5,-0.7054986188888891
mp-770793,Li5Ti2Cu5O12,-1.9491417397222222
mp-971933,YZr,0.11260126166666401
mp-753905,Tm2Zr2O7,-3.858373712727274
mp-768284,Li3Sn(BO2)5,-2.614443671885965
mp-774357,Na6CoO4,-1.381214651661442
mp-29815,LaAs2,-1.242565215416668
mp-6318,KLiSO4,-2.302612706154761
mp-246,TiF3,-3.669544359583334
mp-973442,Lu2AgPt,-0.91120927708333
mp-29555,MoBr2,-1.046118486666666
mp-10492,Rb2SiF6,-3.432261107222219
mp-540721,NaB5H10O13,-2.0267031324038842
mp-540687,Ge3(BiTe3)2,-0.12065502909091001
mp-21144,TbCoGe,-0.6417682788888871
mp-558387,TeOF2,-2.116769906666666
mp-27176,NaMnCl3,-1.764314634396551
mp-20024,LaCuSn,-0.6738442949999991
mp-9906,Y(Re2Si)2,-0.456292724999999
mp-769967,Li3NbV3O8,-2.519113172
mp-775892,Ti3MnSb2(PO4)6,-2.69273711543856
mp-28003,H6OF4,-1.684141569318182
mp-22621,LaTiAgO4,-2.950561660714286
mp-20135,Na2Ca2Ta3O10,-3.130192515574036
mp-777302,Sn2N2O,-0.5839691004999991
mp-30674,Ti5Ga3,-0.408465628020833
mp-744187,Na2Ni4Mo4(HO4)5,-1.423418701400247
mp-7219,Na2ZrSe3,-1.555228321197918
mp-703272,K5NO4,-1.077390962125
mp-571594,K3AgSn3Se8,-0.912112711144444
mp-760007,Hf3N2O3,-3.106226660625001
mp-572998,Lu(IO3)3,-1.491177548397437
mp-22916,NaBr,-1.835072033189654
mp-12691,Lu2InPd2,-0.8869577849999981
mp-763588,LiFe(CO3)2,-1.8305851783333331
mp-31484,K4GaAu8,-0.333098036653847
mp-867267,LiHo2Pt,-0.7629036908333291
mp-695506,Na3Ca7Ti7Nb3O30,-3.2767423687494253
mp-24121,Tb(HO)3,-2.243024384345239
mp-4049,U2P2O9,-3.236731307252748
mp-774502,NbSb3(PO4)6,-2.442743795231092
mp-981200,Zn3Cd,0.11120783874999901
mp-1107,Th7Rh3,-0.6155273784999961
mp-1018741,LaCuPb,-0.406107483333332
mp-972528,SmYAg2,-0.31124212499999904
mp-780913,Na2VO3,-2.121673409626436
mp-30798,NbZn2,-0.161791567499999
mp-764507,Li5Fe8(BO3)8,-2.283518995999999
mp-8409,KYO2,-3.075378259312499
mp-764409,Li2CrO3,-2.154324109444444
mp-555982,Si2Ge3P6O25,-2.6129489563293653
mp-554150,Nd3CuGeS7,-1.752089916666665
mp-28585,Nb3ICl6,-1.573383112124999
mp-19162,LaVO4,-3.224557474166666
mp-865846,LuHfRu2,-0.667736076666667
mp-5666,Ho(MnGe)2,-0.476937864172407
mp-977126,Li3Ag,-0.11667885499999901
mp-21320,UGaNi,-0.301427698055555
mp-559519,Na4TiAs2O9,-2.301786870865662
mp-8175,KTlO2,-1.384316650145836
mp-560008,PNF2,-2.056323034910715
mp-772185,Li6Hf2O7,-2.967999715666667
mp-13194,PrSbO4,-2.794670680694446
mp-6723,Sr3ZnIrO6,-2.405621740454546
mp-776763,Ti3(WO6)2,-2.842795002205883
mp-761763,Li2FeCo3O8,-1.523710552261905
mp-20567,LiGa2Ru,-0.36979460291666805
mp-767661,Li2VF5,-3.163838770520833
mp-11441,Hf2Ga3,-0.562503753000001
mp-850016,Fe3S4,-0.5899503142857121
mp-5627,Pr(FeSi)2,-0.5754389063333321
mp-756517,Na3CuBPO7,-2.218105001380572
mp-12955,HoAgSe2,-1.4328078040885401
mp-864955,Mn2CrCo,-0.042264301465516005
mp-1018124,Ti2Rh,-0.625762542222221
mp-560721,NaCaBeSi2O6F,-3.283559422823276
mp-1005,FeP,-0.597337447321427
mp-975921,HfRu3,-0.24818657499999802
mp-756704,LuTa3O9,-3.5138362168205113
mp-978802,Sm3Pd,-0.16402413499999802
mp-22236,In3Co,-0.016332998125001
mp-771248,Na2Ge2O5,-2.130614815028736
mp-569161,K2La6OsI12,-1.5786587368809522
mp-487,MnP4,-0.35863017630049104
mp-764587,LiFe2(BO3)2,-2.265311431060605
mp-757306,LiCu(PO3)4,-2.329360579550264
mp-10155,P2Ir,-0.8183616969841261
mp-229,ZrRh3,-0.7431837587499991
mp-1019280,SrZnPb,-0.49027521096153703
mp-1349,SrPt2,-0.9349319516666641
mp-19884,Mn3P,-0.35836413960899005
mp-571314,K2CoCl4,-1.745250512428571
mp-505538,Ti3Al2NiC,-0.6787004642857141
mp-604147,Na2Li(H2N)3,-0.483137704465995
mp-974368,Rh3Pb,0.038008067500001005
mp-560939,NaLaP2O7,-3.115836445287728
mp-769553,Li5Co2Ni3O10,-1.571197166833333
mp-555743,LiZnPO4,-2.545751063460884
mp-23572,KBiP2S7,-0.7979409535487001
mp-18856,MoO3,-1.9245719515625002
mp-973174,NaAg3,0.013203913333335001
mp-620069,K3Mo2Cl9,-1.588744950982144
mp-762575,Li2(FeO2)3,-1.7284391792424252
mp-600053,SiO2,-3.249919229285715
mp-571445,HfHg3(SeCl3)2,-1.429331735598959
mp-600001,SiO2,-3.236209193666667
mp-571493,YbHgPb,-0.271082960833335
mp-2917,Dy(CuSi)2,-0.633819243000002
mp-20917,U2Fe3Ge,-0.266671070833335
mp-19232,K2CrO4,-2.0587004506428572
mp-850937,VF4,-3.0211002075
mp-758498,Li2CuSiO4,-2.325726348958333
mp-769523,Na3Mn2P2(CO7)2,-2.246010736925465
mp-30741,PaIr3,-0.9244997274999981
mp-20985,TaPbS2,-1.120059625583333
mp-573855,La7Ni3,-0.226433312500001
mp-677002,SrZr12B2I5Cl23,-2.041970903217054
mp-31339,ScInPd2,-0.8743460287500001
mp-972069,Ti3Ga,-0.308988396875
mp-977436,ZrAlRu2,-0.7510221812500001
mp-555292,PNF2,-2.051450105535714
mp-8528,Tm(SiRh)2,-1.107931958000002
mp-779227,Li24Ti11CrO36,-2.9182348095370383
mp-706629,NaB2H5O6,-1.9522076909020942
mp-757507,Sm3Bi5O12,-2.445157855
mp-540855,Rb6O,-0.51585459642857
mp-778497,Na6Bi2P(CO4)4,-2.005854385962714
mp-760359,NaTi6O12,-3.310094555072596
mp-28261,Na4SnO3,-1.647477668189653
mp-752733,TiGa2O5,-2.654319313541667
mp-707765,TeH12(Cl2O3)2,-1.22410706768116
mp-559355,Hg3AsS4Cl,-0.5125695477777791
mp-754220,Tm(CuO2)2,-2.098162528571428
mp-18971,Mn(PtO2)3,-1.188962142793099
mp-762632,LiFeSiO4,-2.4659751369047602
mp-643033,KPH2SO3,-1.831456460861606
mp-864973,Dy2CdIn,-0.38843705499999803
mp-769007,YScO3,-3.941366084666667
mp-779434,Li5La3Nb2O12,-3.090274037689393
mp-861607,KNaNdTaO5,-3.109234126495849
mp-752418,La2Se2O,-2.9046563599375
mp-546862,HgPb2(ClO)2,-1.356247624642857
mp-20483,Pb,0.0
mp-19895,NiSb2,-0.188414455
mp-2454,TiFe2,-0.283385237777777
mp-673650,Lu2Se3,-2.038129103604165
mp-554155,KSb(PO4)2,-2.456911683044642
mp-631417,ReRuCl2,1.034860074374998
mp-570117,ErTlSe2,-1.6069722595052
mp-769348,MgSnO3,-2.423332424999999
mp-554121,NaHf2VF11,-3.8249189550919542
mp-762282,Li3Cr5O10,-2.241347587222222
mp-867295,LiCeTl2,-0.408952979166663
mp-28833,Er7Ru2C11,-0.28321979149999904
mp-11527,Tm2Ni17,-0.20921616868421103
mp-16430,Pr(FeP3)4,-0.5897136851400431
mp-973891,LaV,0.549601012499998
mp-655591,LiB13C2,-0.15225091109374903
mp-34036,NbBi3O7,-1.996305492272727
mp-1243,Ga2O3,-2.257564781999998
mp-662529,LaFe9Si4,-0.363462549642856
mp-16809,Ho2Si2O7,-3.663021494090907
mp-21589,Ga9Ni13,-0.37577776590909
mp-12481,LaPPt,-1.389336503214285
mp-2151,Mg17Al12,-0.009331720172413
mp-761853,Na3PH22(SO4)3,-1.278626809421483
mp-10287,RbMnTe2,-0.6729746896910911
mp-9749,Sr(BO2)2,-3.123118884404775
mp-849448,Li2Fe2CuO6,-1.548110614242423
mp-18048,LiZnAsO4,-1.9991775020238092
mp-27485,Tc2O7,-1.799278561388888
mp-622116,ReOF4,-2.433664536041666
mp-681,EuZn2,-0.300042766666669
mp-541661,LiZr2(PO4)3,-3.153129242903439
mp-973986,Ho,0.024432154999999
mp-705558,Fe7O9,-1.404771015937501
mp-567719,Pr10(B3C4)3,-0.39020333292472703
mp-776214,Hf2N2O,-2.527892619499999
mp-759735,Li2Bi(PO3)5,-2.518122031733955
mp-10247,U2CrN3,-1.414389716041663
mp-621925,Mn2GeS4,-0.7185546969088661
mp-680180,K3Co(CN)6,-0.283974579562499
mp-23251,KBr,-2.018192221125
mp-23533,K2OsCl6,-1.32268803361111