material_id,formula,formation_energy
mp-759312,MgSiH12(OF)6,-1.998084907692307
mp-22460,LiIn,-0.366299663333332
mp-19712,PrAgPb,-0.45304510277777205
mp-559872,SiO2,-3.263423301666668
mp-579779,Pr2P3Au,-1.017568769543649
mp-952,MoPt2,-0.397281279999996
mp-17889,KNa2(PO3)3,-2.649284270595813
mp-559135,Na2MgH8(SO6)2,-1.8149075569103452
mp-2572,SrMg2,-0.090161266666666
mp-773455,V2SnO7,-2.259000095750001
mp-768400,Li8FeS6,-1.267781715777777
mp-601846,Yb2In8Ir,-0.44420027727272204
mp-3415,Yb(SiRu)2,-0.9595751510000011
mp-28511,Zr2P,-1.078520665621693
mp-568802,KBi(PSe3)2,-0.676732434559821
mp-978842,SrCaO3,-2.177782510999999
mp-558828,K3Nb3(BO6)2,-2.877565431004194
mp-27703,InBrO,-1.664869542222221
mp-978282,Mg3Hg,-0.114536076875001
mp-3717,LuBRh3,-0.888095087833332
mp-775437,V3P6WO24,-2.579009747584033
mp-24805,LaNiSnH2,-0.6422015465
mp-37829,La5TlSe8,-2.131377053363095
mp-14482,SrNb6O16,-3.088678538695652
mp-755116,In2Pt2O7,-1.5192756366666682
mp-759767,LiCu(PO3)3,-2.353447345340136
mp-776444,KLiTi2(PO5)2,-3.031087416658482
mp-977543,ZrInRh2,-0.823157238749995
mp-4179,YbPO4,-3.372331683829365
mp-971944,SrMg3,-6.6786249999673e-05
mp-979988,YbSm3,0.027598341249998003
mp-675199,NaPrS2,-2.046113204322916
mp-4612,TiCo2Ge,-0.499881817083333
mp-6592,K2Pt(NO2)4,-1.074518093133333
mp-18583,Ti4Si7Ni4,-0.677794710222222
mp-31483,Na5TlSn3,-0.254203639166667
mp-762517,Li4Ti3Fe3(TeO8)2,-2.356162594166666
mp-558415,K3CuP2S7,-1.014379339502746
mp-1008632,V2C,-0.537394246666667
mp-761342,Li4Co2Cu3Sb3O16,-1.605521719404762
mp-27385,KTlCl4,-1.544014930097224
mp-13018,UCo4Sn,-0.08880178416666401
mp-758004,K3Nb7O19,-2.963487972818965
mp-15437,MgP4O11,-2.697408374598214
mp-12263,LiAuF4,-2.015588653888889
mp-1009639,PrN,-1.426866345208331
mp-771295,LiMnBO3,-2.438001798405172
mp-10601,Y3GaC,-0.45215557450000105
mp-866691,La2PC,-0.8693988911607161
mp-58,K,0.015213726250000002
mp-1019747,K2Ca3Si3O10,-3.204538754416666
mp-555173,UCO5,-2.821437043571425
mp-3019,Tl4SnTe3,-0.44506448666666903
mp-677042,Na7Zr4Si5PO24,-3.128607387665805
mp-3647,LiGaS2,-1.2768754327083331
mp-675964,Li5GeAs3,-0.5132638287962961
mp-689979,LiFeP2O7,-2.36579605660173
mp-557023,NbVF6,-3.0980898775
mp-765476,Y13Ho3O24,-3.966479024625
mp-722988,TeP4H26(NO5)4,-1.441924233140693
mp-758599,Sr5(ReO3)12,-2.303030494905662
mp-7603,Li2TiF6,-3.530037228333332
mp-3771,MgTiO3,-3.362936645666665
mp-778734,Li6Fe3Sn(PO4)6,-2.478194131571428
mp-505088,NbTe4I,-0.683159817777778
mp-973793,Li8SeN2,-0.750440787263257
mp-558063,KCu(BiS2)2,-0.78785236340625
mp-554610,PrZr2F11,-4.134151529761906
mp-21228,SrCuSeF,-2.225306626953122
mp-864800,Yb2PdAu,-0.988668887500004
mp-505598,Zr(Ni2P)2,-0.8051231720408161
mp-766540,Li4TiS4,-1.547203050462962
mp-764102,Li3Fe2(SiO4)2,-2.497077373666666
mp-707958,PH9C2N4O5,-1.089757590280612
mp-782657,Mn3VTe2(PO4)6,-2.335621775693988
mp-20497,SrIn2Ir,-0.40315717708333304
mp-28874,Hg2P3Br,-0.224946760238096
mp-8348,TlSbF6,-2.626026584166668
mp-12525,Sr2LiReO6,-2.738560688583334
mp-780866,LiFe2Si2O7,-2.5097972271527773
mp-561472,Hg2PO3F,-1.88880420352041
mp-20970,NaMnSb,-0.308379690943484
mp-14793,Mg2SiPt,-0.5998960062499991
mp-556708,KUP3O11,-2.913150250854909
mp-559951,SrTa2Bi2O9,-2.8272920553333343
mp-675430,Sm4Ag2Se7,-1.638286233453523
mp-569815,Si2Ru,-0.561740338333334
mp-674328,Zn(InS2)2,-0.8060035630357121
mp-775439,Li2Cr3P5O18,-2.559992825888604
mp-29898,Tl2Au4S3,-0.40882017379629804
mp-17092,ScSnPd,-0.871613816666666
mp-781712,Na2SnO2,-1.681793108551723
mp-636105,MnGa,-0.22203631762599402
mp-12442,KAuF6,-1.819060352156249
mp-18351,Sr3(GeP2)2,-0.9205362554894181
mp-760489,PH6NO2,-0.9683293377142851
mp-976311,HoErRu2,-0.36737927124999803
mp-568450,SrAlH5,-0.407391335178571
mp-558992,In7GeIrO8,-1.642977864803921
mp-552488,LaCuSeO,-2.314142779335937
mp-850982,LiCo3(OF3)2,-2.100724536111111
mp-570311,K4Sr2SnAs4,-0.6660048524848481
mp-772771,La4(B2O5)3,-3.3678508392
mp-30002,Sc(IO3)3,-1.433463826153846
mp-976182,PrErTl2,-0.34162950208333304
mp-849952,LiFe4(BO3)4,-2.228302948095238
mp-600024,SiO2,-3.248780622083333
mp-622278,TlV2SbO8,-2.073954743194445
mp-677431,Na3SrTiNb3O12,-2.989740895123564
mp-569674,La(CoAs)2,-0.783814918000001
mp-540469,Li2Co3(P2O7)2,-2.347840150227744
mp-634,HgS,-0.23582434666666602
mp-1018954,PuSe2,-1.679461347291663
mp-760791,Li4Cu5F17,-2.145113005826898
mp-850251,Na2Ti9O19,-3.2892096332586203
mp-989577,LiTl2GaF6,-2.645941066750001
mp-3938,ZrSiS,-1.344748419166665
mp-540332,Nb2(PO4)3,-2.848373201113443
mp-662919,SbTe(SeF3)2,-1.826589103135416
mp-979945,Yb3V,0.23714135624999902
mp-757541,LiSiBiO4,-2.454042240000001
mp-22255,RbInTe2,-0.9108616893749981
mp-561134,Sn2SbS2I3,-0.596515239999999
mp-541330,Sr2SmGaCu2O7,-2.47877228826923
mp-30591,Li2CuSn,-0.32586152291666604
mp-769870,Li4Fe3Sb5O16,-1.9071713858333321
mp-13009,SmCrGe3,-0.38410837600000003
mp-1761,LuIr2,-0.8471208155555541
mp-631389,SiWCl2,1.046228950937493
mp-770390,Li2Cr4O13,-1.730489510877193
mp-973300,Lu3Ga,-0.29817492499999704
mp-6942,Ho2CdS4,-1.9445848871428542
mp-755615,Li3Ti4O8,-3.042690468888888
mp-568522,In3SnI5,-0.6854256955555561
mp-763784,LiMn2F6,-2.878221672132822
mp-675625,KNO3,-1.41037420945
mp-604153,LaCr2Si2C,-0.40517255500000104
mp-531914,Li3Ti8O16,-3.281229120432098
mp-735586,KFe2H(SeO3)4,-1.470686684893749
mp-35889,K4C2O3,-0.941056478222221
mp-556438,KNaSmNbO5,-3.011719499292145
mp-542170,Lu5(Si5Ir2)2,-0.8463240564912291
mp-560605,LiLa4AuO8,-3.152200023809523
mp-769111,Sc3Bi3O11,-2.293267796176471
mp-694932,Na(CoO2)3,3.833676469362069
mp-1018685,ErCuSn,-0.540098946666665
mp-2723,IrO2,-1.260892841666664
mp-755933,Li2Fe3S4,-0.7460628318518501
mp-11985,LaMgTl,-0.361751663333337
mp-24456,SrH2N2O5,-1.422445055249999
mp-698623,K4W11O35,-1.44263955968
mp-850225,FeP6(WO8)3,-2.480630746701681
mp-28701,CsSbS6,-0.44357537148437404
mp-2371,Ga2Te5,-0.298831161428572
mp-1009831,TaN,-0.542426494708337
mp-19259,Sr4Al6WO16,-3.296081272592592
mp-778680,Li5Mn8(BO3)8,-2.444949979187739
mp-971928,Zn3Ge,0.18702794124999902
mp-975769,PrYZn2,-0.314635037916666
mp-23245,ErBi,-1.009372189166669
mp-29996,La3PI3,-1.66070905244898
mp-775134,MnV3(PO4)4,-2.611728521104268
mp-758374,Ta7(P2O7)8,-2.785474395387581
mp-758899,Sb2OF8,-2.424074236136363
mp-752477,K3NaFeCl6,-1.8772933639208462
mp-867879,SmHg3,-0.446874828125004
mp-16516,TbAl2Ni,-0.634603844166665
mp-20027,FeP2,-0.53530951642857
mp-776205,Hf2N2O,-2.438661913
mp-1008874,MnCoTe,-0.2192231248659
mp-756936,Sr3Li4La5O12,-3.138616057013889
mp-31362,Na3YCl6,-2.2386238704999992
mp-555650,NdSeClO3,-2.433827878515624
mp-2474,YAg,-0.3274124325
mp-11987,SmMgTl,-0.33660500333333504
mp-7939,NaNbSe2,-1.184083910781248
mp-761573,Li4Mn(PO4)2,-2.641871363703338
mp-504506,RbIn(MoO4)2,-2.078594995347222
mp-2052,ScAs,-1.585676658749999
mp-6456,LiNbGeO5,-2.614636739479166
mp-776213,Hf2N2O,-2.528681851749999
mp-975383,RbCa3,0.224791385625
mp-704210,Mo(PO4)2,-2.319324599404762
mp-777453,LiVF6,-2.907941724479167
mp-11170,KCeSiS4,-1.647863432142855
mp-758289,Th4Ta18O53,-3.444971993293334
mp-142,Ga,0.0
mp-559062,KP(OF)2,-2.874157661565477
mp-556481,SrU(SeO4)2,-2.499418134140624
mp-706608,KPH3O3F,-1.942280325626984
mp-11411,ScGa,-0.6774599400000001
mp-18002,KLi3GeO4,-2.234858861361111
mp-554724,CuP4S3I,-0.389578175119045
mp-24818,LiBeH3,-0.32417049541666604
mp-9983,Ta2Se3,-0.8427346813708311
mp-756919,Mg3(AsO4)2,-2.448505776538461
mp-29104,Ti3Zn2O8,-2.979183314423077
mp-30516,Th3Sn13Rh4,-0.523812147249999
mp-9306,Sr2ZnN2,-0.7217466805
mp-771298,Li4V3Cr2Co(PO4)6,-2.528898569279762
mp-7088,Ta2C,-0.679055604888887
mp-778460,Li3Bi(PO4)2,-2.54736228387755
mp-1443,Sn3F8,-2.537928646818182
mp-770327,Li4Ti3Fe3(CoO8)2,-2.232215733690477
mp-6721,Sr3LiRuO6,-2.5817301612121213
mp-18997,LiMnPO4,-2.633428733343891
mp-541318,CsTi3Si2P6O25,-3.002185566824657
mp-3196,NdGaO3,-3.053719460000001
mp-780049,LuTa7O19,-3.408566041222223
mp-558934,Hg3ClO,-0.596491939833337
mp-29204,P4(S2O)3,-1.137337071813185
mp-19722,MnCu2SnS4,-0.6555518003663781
mp-756374,SrPt3O4,-1.377228348124995
mp-867680,NaTlO,-1.10755619073755
mp-769550,Li2Mn5(FeO6)2,-1.955604972920087
mp-9915,LiBeP,-0.581053935992063
mp-755887,La2S2O,-3.028526543500001
mp-2463,LuFe2,-0.174806843888885
mp-19398,FeAsO4,-1.677560665694443
mp-18532,HoPS4,-1.199412282579362
mp-867739,Nb3GeS6,-1.283144029499999
mp-554826,Pr3Si2ClO8,-3.578738700000001
mp-2104,UAs,-1.145494088750005
mp-568156,Y4CdRu,-0.29082431416665805
mp-706579,KH3(SeO3)2,-1.402339902973957
mp-22449,InCu(PSe3)2,-0.28764453728273304
mp-287,UF4,-4.028010356333334
mp-865165,HfScCo2,-0.390758068750002
mp-40204,KZrTl2OF5,-2.943272496391668
mp-7097,ThAs2,-1.215635171666666
mp-626506,NaHO,-1.472541665876437
mp-777804,LiFeF4,-2.744984278263889
mp-9726,SrBeF4,-3.9188805175
mp-752475,Rb2Ga2Ge3O10,-2.128707120588235
mp-559405,RbU2SbS8,-1.316706723125002
mp-571146,SnICl,-1.074587249999999
mp-979437,YPaTc2,-0.138904952499999
mp-974467,Ru3Cl,0.8074653325000001
mp-863726,Pm2PdRh,-0.7872124312499971
mp-3177,Nd(CuGe)2,-0.588987317499999
mp-20695,Zr3In,-0.30423453125000305
mp-637436,Tm10In20Co9,-0.279584567777778
mp-560014,Pr3CuSnS7,-1.729970365624998
mp-867352,TcRh3,-0.09063705249999901
mp-631398,TeOsCl2,0.6673728146874921
mp-30640,Tm2Fe17,-0.022273146842105
mp-560740,La2SnS3O2,-2.493058701250001
mp-767692,Li2VF6,-3.081822639074074
mp-720912,KZnH4Br3O2,-1.403057544977272
mp-12630,MgSeO4,-1.8707510703906252
mp-772660,NbCrO4,-2.7474836829166662
mp-978564,SmYTl2,-0.36472041041666703
mp-18932,LiPr(WO4)2,-2.6389536358333343
mp-768267,HoInO3,-3.001009271999999
mp-17287,TaTe4Ir,-0.6464112956666691
mp-893,ZrSi,-0.9831583137499991
mp-19385,YMnO3,-3.027483251919541
mp-43068,Na3Al3Si3AgBrO12,-2.931985140034982
mp-559129,Li3Er(NO3)6,-1.427085421339287
mp-978825,Sm3Cr,0.358803561249999
mp-850397,Li4Cr2Fe5O12,-1.9540476407971
mp-19019,NiMoO4,-1.739861825000002
mp-19983,TiCuSn,-0.23237526888888901
mp-6813,KCa10(PO4)7,-3.293435558798912
mp-28574,KPbO2,-1.5689442361874981
mp-22125,Np(CoGe)2,-0.38929859974999703
mp-977164,Li3H3N2,-0.562954471718749
mp-1018136,LaBiPt,-1.179911560000003
mp-744713,NaFe3P2(H4O7)2,-1.826015762880893
mp-35651,La2USe4,-1.957229524910713
mp-1237,UGe2,-0.39624812333333104
mp-11643,K2Mg(PSe3)2,-0.9733716048043821
mp-18915,LiCoPO4,-2.347951432568027
mp-29901,Rb2Cd3Te4,-0.863228203518516
mp-769472,Li11(NiO4)2,-1.8280032469841272
mp-556356,Na2SrAl4(SiO4)4,-3.295185041398465
mp-23958,YH12(ClO2)3,-1.555741919772737
mp-568333,K2SnBr6,-1.5280859805
mp-27318,Sb3(BrF8)2,-2.324827283809524
mp-9200,K3AuO,-0.8797196933499991
mp-555435,S4IN3Cl2,-0.027529629500000003
mp-761087,NaTiO2,-2.74823251180316
mp-7881,Sr(CdGe)2,-0.295944923999998
mp-510219,Sn2Ru,-0.09360177833333601
mp-1018751,LaS2,-2.045570708124993
mp-631368,SiSbOs2,0.8619082989583401
mp-862941,PmMgRh2,-0.5857218106250001
mp-976799,Ni3Bi,0.17344036671875002
mp-648,Na2S,-1.269244534270833
mp-780164,Na6Co2C4SO16,-1.9753538538198692
mp-30404,Li2SbAu,-0.600052838333333
mp-676855,In(HO)3,-1.469949598630952
mp-31491,Sm(GePd)2,-0.8287769209999981
mp-559807,Sb2BrF17,-1.993887267249999
mp-864783,Yb2SbAu,-0.785525567499995
mp-12657,HfAl2,-0.514484086666667
mp-23382,Y4CI5,-1.296937887
mp-10039,Pr3AlC,-0.23128765722222203
mp-581403,K3Na4Si3BF22,-3.369803122922239
mp-3486,KSnSb,-0.39128040074999704
mp-27878,NaSb5O8,-1.798557567598521
mp-625654,TeHO3,-1.351853415583333
mp-771217,Na4Co2P(CO4)4,-1.842213257598521
mp-15066,LiTmSiO4,-3.440315098690477
mp-1016092,Re2O7,-2.025868364583333
mp-18737,Nd2NiO4,-2.975133164285714
mp-27716,KTlO,-1.191447635194449
mp-977368,K2Dy4Cu4Se9,-1.501596021171599
mp-3217,USeO,-2.665166589114585
mp-19082,TiMnO3,-2.9546040562528733
mp-2599,NdN,-1.6327002231249992
mp-38487,Li7BiO6,-1.9806555430952382
mp-865415,YbTmPt2,-1.400555636249997
mp-548691,Sr2ZnReO6,-2.5565004992500002
mp-5556,U(SiRh)2,-0.9653341109999981
mp-29761,UCO5,-2.821639237142857
mp-776922,Rb2O,-1.130593261111111
mp-772046,NbCu3(PO4)4,-2.196926841190476
mp-976330,LiZr2Ir,-0.552409506666666
mp-21332,LiGdO2,-3.213841752708333
mp-19308,Li2NiO2,-1.721651177333333
mp-680333,Ge4Se9,-0.564213325853364
mp-568636,TiCr2,0.091316451944443
mp-504876,Hg19(As5Br9)2,-0.512783053457449
mp-30835,TaPd2,-0.45240659244444204
mp-1992,Pu5Ru3,0.298661862031258
mp-21508,Y2Pd2Pb,-0.8997386459999971
mp-4978,Ti2AlN,-1.286378451770833
mp-721252,Li10Sn(PSe6)2,-1.053918454029761
mp-556834,RuCl(OF3)2,-1.5419199315
mp-27888,Zr3GeO8,-3.3855436679166653
mp-752584,Na5Cu7O13,-1.159433305675862
mp-754065,Hg(SbO3)2,-1.6203834302777782
mp-15541,KNa2Si12(BO10)3,-3.120783737552263
mp-866695,ReTeSeCl4,-1.016341852001488
mp-15161,Tb2Ru2O7,-2.5896548243939392
mp-18691,Rb2Ni3Se4,-0.845413846041668
mp-760376,KTiO3,-2.662460197116666
mp-626151,YHO2,-2.965426360312499
mp-754875,TbSi2Rh3,-1.021624016111112
mp-30656,TiGaNi,-0.549284703611111
mp-768143,NaGePCO7,-2.209002242820196
mp-753890,Ni2H,0.038879803750000004
mp-757256,ZnH4(IO4)2,-1.134069161999999
mp-772282,Sb4I2O5,-1.497712719090906
mp-17308,Tb2Si2O7,-3.657226894848484
mp-27288,RuXeF7,-1.636639636388888
mp-773146,Li2CuPO4,-2.29065608641369
mp-930,ZrP,-1.33065118732143
mp-35759,Li2NiF4,-2.780159261190476
mp-568671,V5Si3,-0.610606585624999
mp-504353,LiSb(PO3)4,-2.519053130661376
mp-983062,K3Cd,0.06827416718750001
mp-558102,KLiSi2O5,-2.9760130617314813
mp-1990,Mg3As2,-0.78755513925
mp-7475,La2S3,-2.508305558187499
mp-30477,LiCaSn,-0.5611635127777781
mp-17974,Na3Hg2,-0.23126353700000002
mp-23,Ni,0.0
mp-5391,Mg2SiO4,-3.162942971428571
mp-770520,Li4Ti2Cr3Fe3O16,-2.322920464642856
mp-978499,SiAs3,0.6606230593749981
mp-29198,Na5AuSe12,-0.6052610313194451
mp-757045,Ti3Nb(CuO4)3,-2.457461196842105
mp-849433,SrTiH4(OF3)2,-2.8039751102380963
mp-755159,Tl2Ge2O7,-1.624485564696972
mp-25935,Li3Ti2(PO4)3,-2.870970304654762
mp-768140,Na2BiPCO7,-2.261253049783456
mp-1822,TiAs,-1.053863845833333
mp-9228,HgSeO3,-1.048512630968753
mp-28202,K3NO4,-1.376361028656249
mp-1769,SbPd,-0.43195545749999903
mp-23674,NaH4BrO2,-1.398204434547413
mp-672950,Sb(PO3)4,-2.353422261974789
mp-556503,LiH3CO3,-1.493577435572917
mp-996962,LiAgO2,-1.104204954999999
mp-774186,LiVP2H5O9,-2.05046293965939
mp-4423,La2Ti2O7,-3.733646127424242
mp-5004,Na2B2Se7,-0.713530352954381
mp-13946,Rb2ZrF6,-3.6596197927777743
mp-8877,Sr4Al6SO12,-3.374863685108694
mp-720861,H13ClO6,-1.2318972799375
mp-20997,InNi,-0.121018259999996
mp-631313,SrHf2Mo,0.856987337708325
mp-31363,K2TaCl6,-2.001392053537037
mp-1019744,K2Al2Si3O10,-3.190578273205883
mp-631371,TlCuIr,0.526797712222228
mp-554006,SrCaSiO4,-3.430644291547618
mp-17322,SrCu2SnS4,-1.024511623541666
mp-977557,NdCdPd2,-0.6324551068749981
mp-769631,Li2Mn3NiO8,-1.933180654318555
mp-33932,NbHO3,-2.474307036749999
mp-862965,PmTlAu2,-0.640160144374995
mp-17235,Sm2Si2O7,-3.637195456136363
mp-560334,NaAlSiO4,-3.14732338966133
mp-557805,MnBiS2Br,-0.8459528145862071
mp-861588,Pr2CuRu,-0.13750002253787402
mp-12193,Nd2Ti2O7,-3.730971776515151
mp-2675,MgNi2,-0.210482842083332
mp-30772,NdMg12,-0.006437292115383001
mp-20557,YSiNi,-0.778605514166664
mp-556058,Na2RuO3,-1.6198605417097691
mp-770799,Li5NbO5,-2.533626071060605
mp-865833,LaYbZn2,-0.335202847499999
mp-2080,SrBe13,-0.050535872142858006
mp-8810,SrZn2(PO4)2,-2.727579975137362
mp-735022,SrPHO4,-2.816329743520408
mp-975822,PrNdZn2,-0.30917252229166503
mp-690541,Tl2SO3,-1.398672000694447
mp-972220,TiPt3,-0.913779769166666
mp-30013,SbKr3F11,-1.267824519333333
mp-15225,Nd2Si2O7,-3.608985797500007
mp-703253,RbFeSe2O7,-1.516392853380681
mp-774146,W(BrO)2,-1.538808808999999
mp-865710,LiSnAu2,-0.38896137208333104
mp-765406,Nd2NiO4,-2.9330092021428573
mp-22812,In2Ir,-0.260605419166665
mp-772464,Li4Cr3Fe5O16,-1.894285055476189
mp-784630,Ni2Mo,-0.039348750000002
mp-23053,PbICl,-1.194657864166665
mp-973666,KV5Se8,-1.048844453999999
mp-557381,Rb3U3Ge2O13,-2.998623806071429
mp-971718,ZnBi3,0.17758092249999802
mp-752414,Tb2TiO5,-3.878109022083332
mp-133,Sb,0.046442370000001
mp-998964,TiGaFeCo,-0.47178935270833305
mp-999336,NdPd,-0.815613898749999
mp-973285,HoLuAu2,-0.9720623679166631
mp-27330,La3(OsO5)2,-2.780886327666676
mp-769542,Na5Cr2As(CO4)4,-1.9777055431927342
mp-867955,Na2Nb3O6,-2.65169354297806
mp-3824,Ta9(NiS3)2,-0.9168304130000001
mp-1019363,ThTeAs,-1.357385472500003
mp-769500,NaMnPCO7,-2.167125627404836
mp-4618,Rb2SeO4,-1.8025620717633921
mp-972810,SiTc2W,-0.311230156249997
mp-28912,MnInBr3,-1.071247910919541
mp-28075,K2Ti2O5,-3.057675286240742
mp-755776,Rb4SiO4,-2.245565171388888
mp-554164,KLiZnP2O7,-2.61301376269742
mp-981933,NaPd2Pb,-0.255437997499999
mp-645962,La4B14O27,-3.159417003185186
mp-772051,Li3CuSiCO7,-2.156497160769231
mp-681992,Zr5Pb3,-0.37525825500000504
mp-673071,Li2SnP2O7,-2.535215862996031
mp-558431,LiCu(PO3)3,-2.400873266590136
mp-1007776,TlP,0.20813198867856902
mp-629443,Li2EuGeS4,-1.473810968333333
mp-23414,Sc4NCl6,-2.3257859400000003
mp-999469,ZnN,1.098939273124998
mp-776201,Zr2N2O,-2.243444366
mp-975638,Pr3Hf,0.212826261249999
mp-778517,Mn3Sn(PO4)6,-2.24156733843089
mp-558229,La10S19,-2.205681217877154
mp-998605,RbPbCl3,-1.8286259214999991
mp-974042,Nd2Co12P7,-0.732120366547618
mp-774349,Li6MnFe5(BO3)6,-2.356801046470307
mp-758844,Li3CuSiO4,-2.307222163333333
mp-510564,NdIn5Rh,-0.435784930119043
mp-755288,LiFeCuS2,-0.732636191666665
mp-647096,Gd3S3N,-1.5765767331696412
mp-769877,Li7Nb2Fe3O16,-2.025914533690476
mp-677103,RbHF2,-2.4836025984375
mp-570985,SiC,-0.305895955833334
mp-27210,RbTlF4,-2.497109427222223
mp-982772,Pm2PtAu,-1.024383191250002
mp-541756,Te2MoCl12,-0.7505906092407411
mp-530141,Li7Ti16O32,-3.263676677393939
mp-850511,LiFeO2,-1.864610830677083
mp-540830,OsF5,-1.8343220304166672
mp-743579,SrCoBiRuO6,-1.6823879875
mp-2818,YbAu,-0.9939060824999971
mp-850229,LiV2P4(HO8)2,-2.39725736577619
mp-557154,NaGaO2,-2.205231194407327
mp-540996,NdGeBO5,-2.973140654270834
mp-756086,Li5BiS4,-1.200772904166666
mp-22303,Rb3InS3,-1.2569234880952371
mp-569511,NiTePd,-0.236874964166666
mp-3782,Nd3Sb5O12,-2.606330456875
mp-555112,Li2CrF6,-2.946232729074074
mp-770729,Li2AlFeO4,-2.432313661145833
mp-10973,K2Ga3CuSe6,-1.038116073630208
mp-673700,Nb2Sb,-0.027746308571425002
mp-780237,Li3Cu3(PO4)2,-2.068684915580356
mp-2352,Na2O,-1.425738685919539
mp-758218,LiTiP2O7,-2.826998219404761
mp-27293,Tl4HgBr6,-1.049838820984852
mp-569048,MgBIr,-0.44400937027777704
mp-774763,Ti3Sb2(PO4)6,-2.707436092224489
mp-559676,SnS,-0.443577061406251
mp-15691,NpAsS,-1.601912328020835
mp-30585,HoCu5,-0.204240175833331
mp-8794,K4UO5,-2.6296852469000003
mp-603612,TiP4H8N2O13,-2.004591144353741
mp-20112,Ni3Sn,-0.185204109999998
mp-1018017,Sc2MnSn,-0.310790319324713
mp-28868,Nb3(BiS3)2,-1.174327239545456
mp-759028,Li3Sb3(PO4)4,-2.4246793814835153
mp-6113,LiTiAsO5,-2.559215438333333
mp-12625,U2TeO2,-2.589119901333323
mp-13596,K2ZrF6,-3.653839338277775
mp-706632,H15RhBr3N5,-0.612857543697916
mp-1785,PrSb,-1.4281947458333302
mp-684517,Tb4In20Ni11,-0.272778943714283
mp-19034,Mg3V2O8,-2.752985765000001
mp-1018145,MnSn,0.325535348534483
mp-27769,V3AsC,-0.579759551500001
mp-867913,LiHo2Ir,-0.59292876833333
mp-18100,Na6Ge2Se7,-1.056078252645473
mp-559142,KLi(PO3)2,-2.7001274273619043
mp-777595,LiFeF4,-2.765281643055555
mp-772160,SrLaI5,-1.795366734285714
mp-560973,SiO2,-3.2380276938888892
mp-11452,HfOs,-0.8459137749999991
mp-8126,YCuSi,-0.7350355066666641
mp-30698,PrCu6,-0.11400013630952101
mp-757551,Li3Sn3(PO4)4,-2.458342993598901
mp-29387,K5SnBi3,-0.33778744125000004
mp-510545,K2BeH4(SO5)2,-1.992559744447369
mp-2847,ErB4,-0.653387246666667
mp-541156,Ge4PbO9,-2.022314588690476
mp-677716,RbAl3Cd(SiO4)3,-3.0236475735
mp-781051,Li5V2Ni3O10,-2.050217496583333
mp-29652,TaSe3,-0.74295523113021
mp-30644,Hf3Nb2Ga3,-0.5368445712500041
mp-27835,K2OsBr6,-1.237443363833331
mp-17593,Ta5Ge3,-0.40993436708333003
mp-850952,Li2Mn3(BO3)3,-2.447583015468221
mp-9970,ScGe,-0.885603622499999
mp-504304,LiCuPO4,-2.176161533639455
mp-696983,KGaH4,-0.28976317620833303
mp-867787,RbTl2Bi,-0.15864039854167
mp-8717,Rb2MnSe2,-1.114751237523707
mp-2163,HoRh,-0.9074884874999981
mp-757788,LiNb(PO3)4,-2.550756140661375
mp-778822,Mn2(SO4)3,-1.870093086815416
mp-694868,Rb2ZrFe(PO4)3,-2.628530787048871
mp-5372,RbFeS2,-1.008359178124999
mp-1868,VS,-1.145506397499999