material_id,formula,formation_energy
mp-561067,KRb2FeF6,-2.934297378224999
mp-2963,CaAl2O4,-3.4544079598809523
mp-4478,CaSiPt,-1.077307350000002
mp-634378,NaHSO4,-1.901192622518472
mp-770698,Li2AlFeO4,-2.4184753758333333
mp-540957,Cs2TeI6,-1.070394815108554
mp-510273,CsSbO2,-1.854186307413794
mp-554894,MgTlP(H6O5)2,-1.6546803429190482
mp-37605,LiNdSe2,-1.911509146822918
mp-770968,Na3NiPCO7,-2.222635345483136
mp-771575,Li2TiMn3O8,-2.3820509656280793
mp-583168,NaSn2,-0.188916883333334
mp-707395,NaH2SeO4,-1.452400036715382
mp-691091,Na2Al2Si3(HO3)4,-2.076047775772114
mp-1018681,DyZnIn,-0.539421279999996
mp-2196,BaSb2,-0.8492804044444461
mp-558603,K2Si4O9,-3.064247861966668
mp-781603,Li4Mn3Fe(BO3)4,-2.463191903074712
mp-9870,K3Ta3(BO6)2,-3.055646548604166
mp-569383,Ca5(CoN2)2,-0.850118299772727
mp-21008,Ni3Ge,-0.2472801625
mp-976772,NiAg3,0.189641159999997
mp-505431,K2LiInAs2,-0.5508561190833331
mp-675759,Tm10Ti6O27,-3.677305164767443
mp-11750,Ti6Si2B,-0.6854489058333301
mp-24214,KPH3O4F,-2.134520646564286
mp-978264,MgW3,0.49715697874999804
mp-755798,ZrPbO3,-2.841214093499999
mp-705295,LiNiP2O7,-2.245103732283549
mp-36836,Sr4Ru2O9,-2.449992044333344
mp-505772,Rb2NaH5(CO4)2,-1.751823810284961
mp-582828,La3Ge3Cl2,-1.560657031874996
mp-773514,Li2CoO3,-1.6289508352777782
mp-19277,VSO5,-2.070559804642857
mp-27355,Pb2OF2,-2.206819075
mp-998307,CsPdBr3,-1.235734314931034
mp-756639,Li2NbOF5,-3.258858037037036
mp-772435,Li3Al2FeO6,-2.6674668125
mp-21108,U6Fe,-0.005493935714280001
mp-6676,Sr2HoRuO6,-2.866980289999999
mp-560174,NaZn(PO3)3,-2.559930456004135
mp-541081,NaMg2H3(SO4)2,-2.031056499695581
mp-850409,Fe2OF3,-2.284754356000001
mp-17481,Mg4Ta2O9,-3.240302830644448
mp-29892,LiSb3O8,-1.960145810277778
mp-2895,Mg2SiO4,-3.213125702857142
mp-758916,Ga2P3H12(NO4)3,-1.657197324185268
mp-570870,Hf5Sb9,-0.48689984321428603
mp-21066,TaMnP,-0.764780168302408
mp-780353,Na6B4Sb2SO16,-2.303078135084224
mp-19417,TiFeO3,-2.717671577666666
mp-643276,LiMg2H7Ru,-0.45050203564393904
mp-3802,Ta4AlC3,-0.639050575541666
mp-734,LaHg,-0.579265096249997
mp-850957,Na6Ti2O7,-2.512837670996168
mp-28257,SOF2,-1.9525433371875
mp-999002,TiFe2As,-0.329577977708333
mp-752849,Y2Pb2O7,-2.52819351772727
mp-22645,PrSnPd,-0.899980192222224
mp-504790,LiYSn,-0.664965038611109
mp-574620,CsYZnSe3,-1.644911321947737
mp-972077,TcGe3,0.269510168125002
mp-20336,USn3,-0.124970003749996
mp-752989,Ti8O13,-3.353443061984128
mp-30252,Na10CaSn12,-0.254896576251873
mp-777474,LiFeF4,-2.782572268888889
mp-31309,RbInSe2,-1.148963117838542
mp-697855,Li2Cr3(P2O7)2,-2.559459064358178
mp-674367,Re6Pb5O19,-1.832058724833333
mp-6031,Li16Nb2N8O,-1.009476244753086
mp-972246,Tb2ReC2,-0.5551524545000001
mp-865916,TiVRe2,-0.46495339041666706
mp-616559,Ti2S,-1.254497415555554
mp-21509,LaMgGa,-0.47606539805555503
mp-22690,TbCdF6,-3.106738923958333
mp-5124,MnNi2Sb,-0.26645777695402
mp-28523,Li2Ta3N5,-1.320414991908333
mp-1018828,NpSeO,-2.41014346703125
mp-557691,La2O3,-3.844539306333335
mp-755318,ScHO2,-2.9066416128125
mp-755585,LiAgO2,-0.8280755112499981
mp-771261,Mn3FeO8,-1.609451035316091
mp-862777,TmPaRu2,-0.45374785000000606
mp-707732,Na4ZnP6(HO2)12,-2.053062063582433
mp-720312,Na2B5H3O10,-2.432582458304597
mp-866140,TiGaPd2,-0.6581097702083271
mp-690544,Ga2FeO4,-2.064265934642857
mp-557260,RbSb2F7,-2.812468973000009
mp-26952,Sb(PO3)4,-2.373560119621848
mp-2334,DyCu,-0.26587246749999904
mp-770884,Li2SnCSO7,-2.003946511180555
mp-554142,Ge(TeO3)2,-1.697089002592593
mp-616564,RbPbIO6,-1.248388385277777
mp-3788,SrAl4O7,-3.4642884175
mp-1009206,MnSn,0.13223548275862002
mp-20404,Sm2InPd2,-0.901900812999997
mp-29959,TlBSe3,-0.297648988937498
mp-768092,LiVSO4F3,-2.428405414333332
mp-10191,Lu2MgSe4,-1.946865798244048
mp-771043,Y2Zr2O7,-3.8370713693181813
mp-541537,K2ZnSiO4,-2.466005657124999
mp-973748,LiIn3,-0.196137001666667
mp-976713,HoH2ClO2,-2.425776653749999
mp-570084,Hg3AsSe4I,-0.456689332152779
mp-971739,ZnCuPt2,-0.359896827499998
mp-570959,Dy2CdSe4,-1.7692832596726191
mp-554012,SClO2F,-1.621763033499999
mp-558696,CuTeO3,-1.238739726333333
mp-582406,Gd2(Zn2Ge)3,-0.39763798318181803
mp-1018043,Ti2InCo,-0.071759558333333
mp-862932,ThInAg2,-0.218022792499997
mp-23985,LiH6BrO7,-1.072326504055555
mp-1002222,TlN,0.971186535833332
mp-505525,Nb4Zn2C,-0.196205255357143
mp-778503,Ti3Fe2Sb(PO4)6,-2.70479929938492
mp-583800,Zr2Cu,-0.06902328708333301
mp-971767,ZnHg3,0.11493791874999401
mp-768877,Sn2Ge2O7,-1.969025513863635
mp-27386,TlHg5Cl11,-1.045985396225494
mp-560767,KNaTiO3,-2.786374037827107
mp-707508,Na2H5RuN5O12,-1.094561938160344
mp-775168,MnCu3(PO4)4,-1.985597141104269
mp-556902,KLi4NbO5,-2.498094743234849
mp-1307,LiGa,-0.37987336583333303
mp-26591,LiNb2(PO4)3,-2.767537044847882
mp-961694,TiNiGe,-0.012492179444444002
mp-24312,Sr(H9O5)2,-1.421468370603448
mp-697084,HPbIO,-1.2150349734374981
mp-561076,La3GaS5O,-2.394744360999999
mp-29628,Na4SnS4,-1.1419720379166671
mp-568546,In5Br7,-1.041482054027777
mp-989631,LaMoN3,-1.113527538000005
mp-24286,ZrH2,-0.636864474166666
mp-15549,K2LiAlF6,-3.464304959283333
mp-20491,LaInCu2,-0.27142022791666603
mp-779428,Sr4HfO6,-3.345469832727272
mp-698654,NaMgFe(SO4)3,-2.114863661882184
mp-552857,TbBi2IO4,-2.323286912708334
mp-555074,Hg3AsS4Br,-0.479470090000001
mp-758594,Li(Fe3P2)2,-0.521217874718613
mp-861941,Ho2PdRu,-0.6704483924999971
mp-19816,Sm2In,-0.48016214499999804
mp-8969,Mg2Ni3P,-0.47301459244047506
mp-864807,HfZnNi2,-0.430705482499998
mp-754060,Li7BiO6,-1.96540869952381
mp-774387,V4OF11,-3.129854101875001
mp-20899,UGa3Pd2,-0.533159251533258
mp-998974,TiFeCoAs,-0.36153024520833305
mp-30883,V4Zn5,-0.07320986611111001
mp-677056,Na2UI6,-1.278514829936142
mp-21207,LaInNi2,-0.41463393666666803
mp-540627,K2Ba(SO)12,-1.50527894924074
mp-765543,Sr3(RhO2)16,-1.4726161131372542
mp-981368,Zn2PdPt,-0.5616684475
mp-560812,KU2(PO4)3,-3.116832153954364
mp-672248,TaAsPCl13,-1.436664849029762
mp-9273,K3Sb2Au3,-0.5525112789062511
mp-722272,Li2H12C3SN6O7,-1.068650160456988
mp-21793,HoSi3Rh5,-0.9591961605555531
mp-756724,Lu2Nb2O7,-3.4094140421212122
mp-7170,UTeP,-0.9654253609920621
mp-777730,Li3BiB8O15,-2.652976614382716
mp-677039,Li5TiAs3,-0.8547465072222211
mp-773982,Mg3Fe4O7,-2.128316562857141
mp-1006282,Nd7Co3,0.055894276750001005
mp-11573,TiTc,-0.518699978333334
mp-31072,Sc6Te2Rh,-0.7950038537037061
mp-7610,Li2CaSiO4,-3.030369032083332
mp-3626,SrZrO3,-3.654475072000001
mp-20268,TiGePd,-0.7103129894444441
mp-556841,LaTmS3,-2.433790954520831
mp-694876,NaSr2LaTi4O12,-3.4893750348189663
mp-721896,H4CSN2,-0.38504973218750105
mp-867926,LiInPd2,-0.6129045441666641
mp-697283,H8W(S2N)2,-0.593711712833331
mp-973265,K3Zr,0.9782274927499991
mp-1521,Sb7Mo3,0.002706001000001
mp-999317,OsN,0.23951953250000102
mp-21659,Hf3(NbGe2)2,-0.6520793930555551
mp-16970,Na2Si2O5,-2.8995427866954033
mp-774461,TiMn3(PO4)6,-2.382076348087753
mp-30889,Ho2Ru2O7,-2.5927989159090883
mp-973676,HgS,-0.373950982500003
mp-9274,Rb3Sb2Au3,-0.46199760906249904
mp-558523,PAuClF3,-1.731200628033081
mp-865307,Tm2CuIr,-0.6633023075000001
mp-998196,RbCuBr3,-1.2007867865
mp-757418,KTi16O32,-3.424676279195578
mp-754092,ScTiO3,-3.539447763666667
mp-554805,Sr3Se3(ClO4)2,-2.242436686220703
mp-865080,NaCeAu2,-0.497790127844825
mp-752840,Na6SbO5,-1.6579378302729881
mp-756195,Li2(VS2)3,-1.248875063787878
mp-769578,Li4V2C4SO16,-2.094307773179013
mp-36921,Mn2CuO4,-1.636304126551725
mp-850359,Li5Fe5(CoO6)2,-1.778412174444445
mp-18199,Sr3TaAs3O,-1.547699824979167
mp-781504,Li2CrP2O7,-2.6051950450793653
mp-684446,LiSnP2O7,-2.450671254783549
mp-616512,Y3Co2,-0.129559903999999
mp-12631,SrTcO3,-2.3778703065
mp-8578,Sc3InC,-0.798288960999997
mp-764354,LiMnF5,-2.606043561966339
mp-510529,LiCr(SiO3)2,-2.924964505583332
mp-12108,VPt2,-0.543644193333335
mp-1331,YCd2,-0.29284685666666704
mp-779077,Li24TiCr11O36,-2.297207443518518
mp-4368,SbPdSe,-0.44380375135416705
mp-12793,NdAl,-0.388869833749996
mp-776593,LuScO3,-3.982798759333333
mp-10455,YTiGe,-0.78883065888889
mp-28127,Na2S5,-0.607518609508928
mp-30060,Sn5(BRh3)2,-0.45170721871794706
mp-21536,Ni2Mo4C,-0.098268498214281
mp-1016836,ZnOsO3,-0.9592664469999991
mp-2585,Sr5Sb3,-1.067041795625
mp-23193,KCl,-2.175260748125
mp-768234,La2HfO5,-3.966440516875002
mp-7895,Rb2O2,-1.23299356125
mp-795,LiSi,-0.162072771041666
mp-865963,LiGaAg2,-0.212278126666666
mp-22003,NaN3,-0.1652483190625
mp-28787,Zn2BIr2,-0.334820853500002
mp-6340,LiAl(SiO3)2,-3.194587714333333
mp-15281,Sm3ReO7,-3.28051356840909
mp-31463,Tb5Bi3,-0.8462108800000081
mp-989551,LiTl2InF6,-2.592978106666667
mp-11360,ScGaCu2,-0.39477505375000105
mp-554320,P2Pd2O7,-1.904524799935064
mp-555259,UTe2PbO8,-2.256445499236097
mp-27126,Na2Mn3Cl8,-1.724849069496021
mp-705676,K4MoO8,-1.158084591461538
mp-554134,SnS,-0.39338853890625103
mp-631442,V2CuBr,0.514859423749999
mp-690711,TlP(HO2)2,-1.920012393497025
mp-756817,Li5Cu5(SbO6)2,-1.6245778019444441
mp-5063,YAl3Ni2,-0.653710698888882
mp-19482,Na2V(PO4)2,-2.627190911888026
mp-675195,Li13(Mn3As4)2,-0.41662265892294603
mp-27180,NdSBr,-2.357365391666667
mp-1020624,NaBe(BO2)3,-2.841275167170846
mp-3385,Sr(PPd)2,-0.8248441598571411
mp-22570,Mg5In2,-0.048919248333333006
mp-769368,Rb4SnO3,-1.5204240299999991
mp-31347,YInRh,-0.7305562711111091
mp-560104,LiTaGeO5,-2.759043833520833
mp-755705,SrLaI5,-1.859093753571428
mp-557894,SiO2,-3.2513156152083322
mp-31135,Si19Te8,0.015168027407408002
mp-771853,Mn3Nb2Cr3O16,-2.249142898074712
mp-28556,Na3CuO3,-1.44253688273399
mp-36165,Na10Zn4O9,-1.6252489201649172
mp-758435,Li2CuSiO4,-2.328476033020833
mp-5759,Tb2Fe14B,-0.10331645779411701
mp-22816,TbGeRh,-0.9703058813888871
mp-775492,Li2MnV3O8,-2.413891159435549
mp-776686,Li5Fe3Ni2(PO4)6,-2.372101318113094
mp-767145,Mg8V5O16,-2.789331305517241
mp-540477,Li2Mn(PO3)4,-2.603497492798375
mp-540789,PbI2,-0.9210956183333321
mp-6812,KBaPO4,-3.040540147413266
mp-755138,NdInO3,-2.873084320333331
mp-555120,KGaCuF6,-2.632207858305555
mp-1901,NaO2,-0.9068322404597691
mp-6596,MgAlPO5,-3.154525512142857
mp-730823,P6H24N6O19,-1.394880214597402
mp-18677,PrSc3(BO3)4,-3.453176868916666
mp-23538,KFeCl3,-1.57457812995
mp-752463,NbNO,-1.914224260000001
mp-30442,NpBe13,-0.064021997410716
mp-622491,Pb13(Br3O5)2,-1.470961341034478
mp-762250,Sn2N2O,-0.581390365499999
mp-776141,Li4Fe3Co2Sb3O16,-1.8173836815476192
mp-624397,SiC,-0.27418348982296703
mp-976598,LiHf2Ir,-0.5352274958333311
mp-22983,LiAlCl4,-1.8320611681944432
mp-19946,YInCu2,-0.37696516166668204
mp-697263,LiAsH2OF6,-2.306358966666667
mp-574,Ta2Co,-0.234795238222217
mp-24126,Sr3Al2(HO)12,-2.091195201551723
mp-850876,VOF3,-2.6825115795
mp-704637,Nb12WO33,-2.954560287500001
mp-17823,Tl3B3S10,-0.6727081101562501
mp-6964,NaTbO2,-3.126936168261493
mp-19713,Sc3In,-0.37704939874999904
mp-7243,LiSnPd2,-0.660608439583331
mp-10244,Zr3(CuSi)4,-0.5582189327272721
mp-761592,Li3Fe2CoO6,-1.866226081666667
mp-12807,KAlO2,-2.9019306004062493
mp-15123,Th(AlC)4,-0.35121894555555505
mp-866141,TiFe2Si,-0.6748571133333341
mp-1018140,MgNi,-0.136087397499999
mp-31455,VSbRu,-0.21259356916666103
mp-24051,ErHCl,-1.610010280416666
mp-976365,Nd3Au,-0.20743211062499803
mp-1008755,SrB2,0.12886528574074002
mp-757817,Li2Nb(PO4)2,-2.699444572188643
mp-8470,NaPrO2,-2.950143315761493
mp-556120,RbTl(SO4)2,-1.837796461319444
mp-758953,P2H12BrN7,-0.553056817240259
mp-780492,Li4VP6(H4O11)2,-2.2289850561265983
mp-6361,NaSr3NbO6,-3.059406635125391
mp-555076,KNaSnF6,-3.017626465958811
mp-765775,Li2V2SiGeO10,-2.458022600729166
mp-973004,ScRu3,-0.047536098749999006
mp-8672,La2PdO4,-2.98257549
mp-29314,RbVBr3,-1.548910446166666
mp-582023,La21Fe8Sb7C12,-0.551166405104167
mp-5676,MnSbPt,-0.364117662643674
mp-555077,Sn2IF3,-2.112300603333333
mp-2120,HoAg2,-0.323417429444444
mp-583740,Zr7P4,-1.167079413961038
mp-13542,ZrGeTe4,-0.601916393333335
mp-21497,Pb2SO5,-1.834869791562503
mp-778723,Li3MnFe2(BO3)3,-2.386812724190614
mp-776281,Zr2N2O,-2.331988492749997
mp-31412,PrSnAu,-0.824945663888885
mp-570076,Tl2CdSnTe4,-0.512410161041667
mp-762050,Li4Cu7(PO4)6,-2.024165904907085
mp-12174,HfNi3,-0.517618210249997
mp-12787,SiO2,-3.270059158333334
mp-8449,Rb2Li2SiO4,-2.497921002962963
mp-5584,Ga(MoSe2)4,-0.870652148173076
mp-643069,Li2HIO,-1.661883586583333
mp-22214,Rb2RhF6,-2.4919378049999983
mp-4276,NaSi2Pd3,-0.635122020833333
mp-20868,Fe2W,-0.023268992499996
mp-29393,UNb2O7,-3.236827266499999
mp-772739,Fe2CoO6,-1.152397745925926
mp-8226,ThNF,-3.109788090000002
mp-1014252,Hf3ZnN,-1.017868710750002
mp-570673,ScNi5,-0.283420650833331
mp-1007906,ErH,-0.42906371520833203
mp-8388,K2CuF4,-2.538780793499999
mp-976751,Nd3Zr,0.145326666875
mp-581968,Tm2Pd2Pb,-0.842583276000004
mp-780200,LiFePH2O5,-2.04409697204762
mp-571212,Yb5Ag3,-0.230674216249997
mp-19334,Na4WO5,-2.135016239551723
mp-2684,TbGa2,-0.7846199033333341
mp-560019,K2Ge3(BO5)2,-2.401851138401962
mp-677335,GaPO4,-2.591907708690476
mp-552802,ErU2S3O2,-2.692752169062496
mp-18678,Nd2Ge5Rh3,-0.8172705354999971
mp-934,LiTl,-0.255599763333332
mp-961663,SrTePd,-1.041616672222221
mp-865905,YbPmRh2,-0.876458638125001
mp-777181,Ti2Nb(PO4)3,-2.828291664199734
mp-1018076,Ga2BiAs,-0.16220206374999702
mp-510377,EuBRh3,-0.463738158833334
mp-23568,XeN2(OF4)2,-0.819809480192308
mp-22626,OsF6,-1.780746362857144
mp-18383,K3NbS4,-1.470959260843749
mp-755357,NdAsO4,-2.800570602499998
mp-3191,Ho(FeSi)2,-0.648340226999997
mp-862759,PrMgZn2,-0.32945275166666604
mp-779257,Li3Cu3(PO4)2,-2.066128764330356
mp-763752,Li3Mn2(NiO4)2,-1.367121767057472
mp-1876,SnS,-0.38045513140625004
mp-764888,Li3Fe4(BO3)4,-2.296310453550723
mp-772060,Li3NbFe3O8,-2.1213067633333322
mp-773599,NaSb3O8,-1.885443015531609
mp-757388,PH6NO4,-1.44721080767857
mp-778149,Li6Ti3P8O29,-2.867435775481366
mp-760361,H3NCl,-0.49831668100000004
mp-973114,HoLuRu2,-0.40560824041666405
mp-975528,NdDyTl2,-0.35454964645833204
mp-24412,K2NaAlH6,-0.34407027
mp-879,La3Te4,-1.845309649523808
mp-570351,Na2Sn3Au,-0.32525175249999905
mp-776,LaCd,-0.30600151750000004
mp-973896,Ni3I,0.43183897875000005
mp-20727,Sb2PbO6,-1.9003055799999982
mp-30738,LiIr3,-0.22014150666666402
mp-561166,Na2ZrGe2O7,-2.56855023939655
mp-225,ErZn5,-0.307489141388889
mp-30387,HoAu4,-0.650833819000001
mp-569531,Rb2CuBr3,-1.53308833
mp-19006,MnO,-1.979201203965518
mp-20941,UIn3,-0.30253663874999803
mp-1018025,LuAgO2,-2.708882957083331
mp-768301,Ho2B4O9,-3.286751686777776
mp-768231,YHO2,-2.8476985753125
mp-779404,Li3Cr2(AsO4)3,-2.072398058499999
mp-7129,Rb2Ti(CuS2)2,-1.276396080370371
mp-2319,P2Os,-0.607371185317461
mp-27140,K2Sb4O11,-1.9721775643823531
mp-1013529,Sr3N2,-0.11248128250000002
mp-23165,PtBr3,-0.6577550981249981
mp-23321,Sr4Cl6O,-2.967104865909093
mp-454,NaGa4,-0.138768106275861
mp-5012,Li2SiO3,-2.882894919444446
mp-763240,LiCoSiO4,-2.329689338333334
mp-6217,LaSc3(BO3)4,-3.472035604583332
mp-23049,KMnCl3,-1.841129159146552
mp-763365,Mn3O5F,-1.941515733754789
mp-600078,SiO2,-3.243577437962964
mp-4511,La2SO2,-3.5583565615
mp-555443,PNF2,-2.051022649785714
mp-864901,LaAu3,-0.683693155000001
mp-17188,U(Al10V)2,-0.21980792695652102
mp-23948,Rb3MgH5,-0.28371244902777704
mp-27501,Cs2ThCl6,-2.407044542777776
mp-2877,Nd(CuSi)2,-0.6278194554999991
mp-31415,La3TaO7,-3.825579913848483
mp-16981,Sm5Si3O13,-3.617742581666668
mp-600059,SiO2,-3.259422532647059
mp-756194,Tm4(B2O5)3,-3.3171072604000003
mp-631472,InFeAs,0.7441179919444441
mp-17691,Cu3SbS3,-0.265667770271294
mp-755378,NaPdO2,-1.173814772844826
mp-865046,LiPaPt2,-0.860604424166666
mp-568144,Dy5In3,-0.535891259375002
mp-998298,CsSnF3,-2.752679089931034
mp-774171,Li3Mn2(SiO4)2,-2.592644660057471
mp-510488,SmMnSbO,-1.7853279332327592
mp-850402,Li5Mn8(BO3)8,-2.441189187409961
mp-776283,Li4NbCo3O8,-2.039650228333332
mp-722912,Hf3Zn3C,-0.549929837857149
mp-29531,CsBi3S5,-0.6585908918402791
mp-21524,SrNiN,-0.645344202361112
mp-720593,Na2B5H5O11,-2.275494170319214
mp-27889,K(V5S8)2,-1.2860594898981481
mp-555121,MgAs2S2(OF3)4,-2.377822858452381
mp-1007852,FeCo3,0.028938069999999
mp-757173,Sb5O7F,-1.775351796923076
mp-510503,Nd5Sn3,-0.689019435937499
mp-650328,NbTe4,-0.6687333711666661
mp-757084,Rb3SbO3,-1.725451873928571
mp-21161,SmSnPt,-1.05715815972222
mp-755941,Sm3TaO7,-3.78120640112121
mp-675,ZrW2,-0.139601098333334
mp-23261,I2O5,-0.7564620653571411
mp-775269,LiFe2(BO3)2,-2.275262395151515
mp-621960,Sb4Pb4S11,-0.564335487763156
mp-11498,MgTl,-0.016988674166672
mp-18195,Lu2SiO5,-3.839805311354167
mp-13944,Li3AlN2,-1.045083798333333
mp-20816,Gd2AlGe2,-0.7376901869999991
mp-721463,K2P2H2O7,-2.326714632983516
mp-762644,LiFeSiO4,-2.510166298809525
mp-770734,Mg3(AsO4)2,-2.4057846207692313
mp-11370,ErIn,-0.5532015666666651
mp-558891,SiO2,-3.259668037500001
mp-35663,Sr(InTe2)2,-0.8943321171428551
mp-867290,TbTe,-1.549852165
mp-771780,Li3Zn(Fe5O8)4,-1.685766479821428
mp-769211,Tb2Pb2O7,-2.550893196212119
mp-770677,Li4Co3Sb5O16,-1.851040098333333
mp-1002063,SnS2,-0.397310885208331
mp-769271,Sr4Ta2O9,-3.424987994977778
mp-2233,Th2Ag,-0.06417755055554801
mp-695965,RbNa2P3(HO2)6,-2.120706523403633
mp-6179,KLiSO4,-2.302494547583332
mp-672289,Ge3N4,-0.192592425714287
mp-983581,Er2PdRh,-0.9299678574999991
mp-4725,Nd(GePd)2,-0.8359773114999991
mp-757466,Li3Si2BiO7,-2.635677491025641
mp-542781,Rb8Tl11,-0.120511559035092
mp-22756,K2PbO3,-1.558275880333332
mp-12956,Yb(FeP3)4,-0.503579834159662
mp-616185,Rb2ZnCl4,-2.009704193928571
mp-866482,CsSi,-0.138510518124999
mp-1018697,EuCdSn,-0.5372550300000001
mp-568909,Cs2MgCl4,-2.294411440615763
mp-571,TiNi,-0.347360651666666
mp-972997,HoErCd2,-0.288900253749996
mp-774976,Li8Mn5Fe3(BO3)8,-2.439370832284483
mp-560010,Rb2Ga2B2O7,-2.522656442179486
mp-18622,Hf7P4,-1.155794342445894
mp-769485,Na2MnPCO7,-2.299573888361042
mp-567252,Nb3Se12I,-0.9368450561328131
mp-774303,Li6Mn5Fe(BO3)6,-2.480750670823754
mp-5544,U(Al2Cr)4,-0.11759277769230601
mp-12765,GdC2,-0.304990589999998
mp-23054,NaBiO3,-1.580260707275866
mp-699284,Li2HN,-0.574240846979166
mp-2970,Na4GeO4,-2.009036232279693
mp-604429,NaFe3H6(SO7)2,-1.673020333226126
mp-4604,Li7VN4,-0.9590333469097211
mp-4439,Pr(SiNi)2,-0.7616744283333331
mp-989632,LaOsN3,-0.591896226
mp-3676,MgCu4Sn,-0.12155869500000001
mp-1247,Sb2Ir,-0.45282265916666603
mp-761549,LiMnPO4,-2.562335476558175
mp-554889,ZnS,-0.962055389739583
mp-631621,VBi(PbO3)2,-1.8856922847500002
mp-617281,In4Te3,-0.39453985964285304
mp-1341,Te2Rh3,-0.285971168999998
mp-653429,Mn7FeCl3O10,-1.9032996476436792
mp-699437,KP(HO2)2,-2.153860421799106
mp-972658,SmBi3,-0.43996813375000704
mp-4355,YTiO3,-3.602780869166666
mp-758848,Ti5NbO12,-3.371850255925927
mp-20987,YZnSn,-0.5921585825000001
mp-28529,KInBr3,-1.519488171283333
mp-555717,K2Nd2IrO7,-2.468049836208333
mp-626271,Sr(H8O5)2,-1.3625953327777771
mp-10893,MnAlPt2,-0.6880260594827581
mp-31502,ScCd7,-0.125089603749998
mp-570767,PrBC,-0.436817958111114
mp-30354,ScAg4,-0.18631707499999903
mp-780217,Li7CuO4,-1.8113065227777772
mp-776435,LaTiNO2,-3.033137885666668
mp-556867,K2PrZr(PO4)3,-3.140609015662908
mp-760251,Na2CuP2O7,-2.349647873920361
mp-11416,TaGa3,-0.20079970933333502
mp-997003,LaAuO2,-2.563249235
mp-1018164,PtC,0.9112256662500001
mp-679987,NbP2S2Cl5,-1.219662309928571
mp-864949,MnGaRh2,-0.5291817238577591
mp-10867,PrPPd,-1.22782753543651
mp-867908,LaBiAu2,-0.679363793750001
mp-771996,Li3Mg2Fe19O32,-1.789702692857143
mp-704981,Mn5Ge2,-0.025948323760262
mp-7604,Mg3NF3,-2.7766350564285682
mp-20606,Tb3In5S12,-1.356625217687499
mp-780859,Ti3V2Ni(PO4)6,-2.816080271607141
mp-761495,Li2Ni(PO3)4,-2.4882346561967412
mp-985610,NaAg(CO2)2,-1.4697001097557472
mp-768071,Li5Mn17(SiO16)2,-2.162873726455255
mp-10776,K2Sn(AsS3)2,-0.8667852744999991
mp-20083,ScCuSi,-0.677673488888888
mp-6442,LiAl(Si2O5)2,-3.243759347395833
mp-761825,LiSb(TeO4)3,-1.569226888431372
mp-11155,NdMgGa,-0.478719716666666
mp-768572,YAl3O6,-3.5086665855
mp-556609,KSb(PS3)2,-0.77477469415357
mp-764357,V2OF5,-2.993044167499999
mp-722397,MgP2H12O11,-1.702843055934065
mp-27849,TiBrN,-1.677342069444446
mp-1019257,SmZnGa,-0.5628913708333341
mp-706235,NaCa2V3Zn2O12,-2.554058480818965
mp-559549,K2LaNb5O15,-3.103566881499999
mp-8860,Na3As,-0.5104412006249991
mp-1221,V3Ge,-0.3350246525
mp-23763,SnH8(NCl3)2,-0.984600160882353
mp-17659,Mg23Al30,-0.010167054999999