material_id,formula,formation_energy
mp-567873,RbSmGeSe4,-1.413003708482142
mp-973957,La2ZnAg,-0.287038007500001
mp-769384,Li3NbOF6,-3.198078310681818
mp-639511,SiO2,-3.25173815625
mp-780412,Na6Bi2B4AsO16,-2.157686561118707
mp-865108,NaSmHg2,-0.43158557875000203
mp-864841,Nb4Ni2C,-0.34014722321428603
mp-768292,Li2BiBO4,-2.229777842604166
mp-558239,Rb4U5O17,-3.347125572403845
mp-863671,Pm2CuRu,-0.21793904000000003
mp-559123,YSiNO2,-2.947512009
mp-978553,SiAs2,-0.109264087916666
mp-18837,KSc(MoO4)2,-2.5136493401875013
mp-849656,Li5Co4(Si3O10)2,-2.493450009619049
mp-849260,ReH8(I3N)2,-0.47365321632353
mp-21101,U(SiPt)2,-0.7479800819999951
mp-977444,PaAgAu2,-0.316874893749997
mp-555485,Rb2GdGa(SiO3)4,-3.131916617875
mp-11706,Ho2HgO4,-3.055237869642856
mp-674459,NaErF4,-4.005070588055555
mp-27564,Na4B2O5,-2.395543281259143
mp-11984,YMgTl,-0.32329337833333505
mp-770708,Na3SiBSbO7,-2.415099216408045
mp-573548,La3(GaNi2)2,-0.5040645611111101
mp-779690,Hg(TeO3)2,-1.19354799925926
mp-510566,La3CuSnS7,-1.835891927291665
mp-642804,KCu2P2H3(O4F)2,-2.00633767279365
mp-641945,Tb2Sb5,-0.769582221785713
mp-556005,ZnS,-0.9615223076562511
mp-37808,Sc(TiN)9,-1.8579952405263152
mp-861511,PuP3,-0.721506478348217
mp-18833,Sr3Cr2O8,-2.62652591153846
mp-775263,Li6CoNi9O20,-1.266630112499999
mp-753405,LiCuF3,-2.332669885333333
mp-3195,Sr11(CdSb2)6,-0.8016435082758611
mp-676274,Tl9SbSe6,-0.42728642277344103
mp-3125,K3Zn2F7,-2.840116175562499
mp-10152,La(SiIr)2,-1.008842125999999
mp-23700,RbH2OF,-1.9264275890000002
mp-631319,LiTiRe,1.012202545833332
mp-20729,LaIn3,-0.5920198962500011
mp-2402,NaSi,-0.069361268125
mp-676341,Na2UF6,-3.610556091666669
mp-32314,LiNiP2O7,-2.286348364556276
mp-978511,SmPa3,0.22981074125000503
mp-543056,Mg7As6(HO6)4,-2.036313437439025
mp-758044,Li5Ti8O16,-3.151682846666666
mp-31284,NaSn5,-0.071925608333332
mp-505055,Na3B5Pt9,-0.49039232720587805
mp-744084,MnAgH8(OF)4,-1.599134833866538
mp-17025,Sr3Y(BO3)3,-3.32911240484375
mp-756742,Lu3AlO6,-3.936922857
mp-781591,Li3Co2(SiO4)2,-2.400666060666667
mp-971837,ZnCdTe2,-0.6639089545833311
mp-690702,SnPHO4,-2.147675433341836
mp-763336,Li2Cr3CoO8,-2.029632431904762
mp-705519,Ni15O16,-1.141174366451612
mp-22032,TbInIr,-0.698292834444441
mp-554818,KTe3O6F,-1.7760151929318182
mp-13627,Y3ReO8,-3.281096695625
mp-989643,LaCoN3,-0.641243549249998
mp-766931,Li2Si2NiO6,-2.589589968636364
mp-20820,Pb(NO3)2,-1.068641512777766
mp-998367,YReN3,-0.75219601375
mp-567970,Hf3(Al2C3)2,-0.6322301508974351
mp-754005,Mg(CO2)2,-2.038062267142857
mp-4993,TbSi2Ni,-0.8067504016666671
mp-1017514,MgSiN2,-1.06345314625
mp-567437,Pd(Se4Cl)2,-0.20242243954545103
mp-569522,MnP4,-0.359478627967159
mp-540833,V2Co3O8,-1.8689020957692302
mp-1018165,PtC,1.4822802012499992
mp-17461,NaTiP2O7,-2.840055451045305
mp-13909,K4Sn23,-0.11740503366666301
mp-16828,Li3B7O12,-2.8171228433712123
mp-24396,MgH14SO11,-1.527186023148146
mp-705134,In2(MoO4)3,-1.990669390122549
mp-1020060,LiB(S2O7)2,-1.908172922874999
mp-35907,La5TlTe8,-1.7184468929762282
mp-554686,MgAs2(XeF9)2,-2.062528275978261
mp-567347,Li2AgSn,-0.36798695333333203
mp-12878,Sr2YSbO6,-3.095266208000001
mp-754213,Li2ZrCuO4,-2.445841007083332
mp-757156,Sn(PO3)4,-2.458803120798318
mp-30143,U(IO4)2,-1.820930397272725
mp-7289,K2Te3,-0.863097973
mp-26630,TiP2O7,-2.95336542001189
mp-9855,KHfCuS3,-1.5218820332916652
mp-540313,LiFe(PO3)3,-2.523708880161565
mp-972993,LiSmAu2,-0.6821153145833311
mp-7083,LaSi,-0.814522047499998
mp-3849,TlFeS2,-0.619509334583334
mp-505421,Mn2CuO4,-1.665176083694581
mp-756812,Rb3ErO3,-2.2346061771428563
mp-989565,Rb2TlGaF6,-2.835232728583334
mp-567948,Rb2Pd(IBr2)2,-1.236393463888888
mp-961719,HfAsRh,-0.36594776249999905
mp-2781,ScPd,-0.908621692499998
mp-7565,SbRu,-0.155521230000001
mp-981699,SmZnIn,-0.447659898888887
mp-550805,LuBi2ClO4,-2.481985219583334
mp-795582,Nb4ReO4,-1.482234493055555
mp-23905,KMgH9(CO5)2,-1.6791570458043492
mp-13082,Mn2CoSi,-0.345258373965517
mp-26150,Sb(PO3)4,-2.352109876680671
mp-559088,La2Si(IO2)2,-3.175544255833333
mp-3441,Y(SiRh)2,-1.1148804820000011
mp-999249,Sc2MnGe,-0.186364483232758
mp-9918,LiGe,-0.280800750416666
mp-39681,NaTi2BiO6,-2.830933748804598
mp-17714,Ho4(B2O5)3,-3.374814772999999
mp-30110,SrLaI4,-1.8040814475000002
mp-619928,Zr(Se2Cl3)2,-1.02073578715909
mp-978847,SrGaGeH,-0.5194814759375
mp-15514,NaSe2,-0.6857838314583321
mp-558984,GaTeO3F,-2.062971052361112
mp-757301,LiSn(PO3)3,-2.448960731590136
mp-18332,Lu2ZnS4,-1.956923562440475
mp-543001,Zr5Sn4,-0.6570043188888891
mp-22538,Li8PbO6,-1.975071490444444
mp-581967,Nb2O5,-3.034205274693879
mp-769008,Li4Bi3O8,-1.740530835222223
mp-638261,La2GeO5,-3.330141265312501
mp-567178,PbI2,-0.9210123294444361
mp-776500,Li3V2(OF)4,-2.7366932007692313
mp-9061,KPdF3,-2.109119648449999
mp-905,LaF3,-4.508268510833333
mp-21858,UO3,-3.529201394374998
mp-773206,Li3CrSiBO7,-2.579653332243589
mp-771902,Li4Ti3Cr2Fe3O16,-2.4899638576190473
mp-707151,Na2B4H20O17,-1.705678375684309
mp-976953,Ni3Te,0.058279811875001
mp-861965,Ho2RuRh,-0.648692167499998
mp-686183,Zn(Bi25O38)2,-1.605189519055119
mp-21328,HfSn,-0.30013971925000504
mp-505081,Ti2NiP5,-0.750077720922618
mp-13568,NdS2,-2.015935722708332
mp-696944,LaHBr2,-1.931267362812501
mp-1377,ThCu2,-0.20136215666666601
mp-763003,LiMnF3,-2.952016146586207
mp-23300,NdBi,-0.9420215337500041
mp-776661,NbV3O10,-2.420244780714285
mp-1594,Ni2Ge,-0.232667855
mp-708,LaAs,-1.847575358749996
mp-30492,Na2CdSn,-0.184196534439653
mp-1008726,Ti2Ga,0.42459953527777705
mp-772105,Li2Zr2O5,-3.223184514074075
mp-541168,RbTm(PO3)4,-2.92147121561508
mp-866071,MgTaOs2,-0.17512255058333
mp-8683,K5As2Au,-0.42455722140625
mp-756439,SrLaBr5,-2.404542975
mp-763344,LiV3O8,-2.273610931944445
mp-13026,YbZnPt,-1.100896796666669
mp-976885,Li2Mg,-0.027183797777777
mp-635426,GdAu,-0.8434288549999991
mp-773498,Na6Sn2O7,-1.869324576885056
mp-778754,Li8MnFe7(BO3)8,-2.353807886206896
mp-7651,ThSiO4,-3.790654651666666
mp-861483,Pr2IrPd,-0.6643380683333321
mp-557407,K3NaUC3O11,-2.4535804580594363
mp-31075,Hg3(SeBr)2,-0.64565954745536
mp-541819,Rb2Hg(BSe)9,-0.6351787290997011
mp-562338,USeO6,-2.328941733105469
mp-20329,InAgO2,-1.392417060833322
mp-21563,SrAlBO4,-3.227932575416666
mp-771699,Sb2O5,-1.6689724225
mp-758038,La2Ti3O9,-3.6859673896428573
mp-775275,Mn3Sb(PO4)6,-2.229570045048536
mp-774236,Li3CrSiCO7,-2.498921508269231
mp-35739,ZrUN2,-1.744562756875002
mp-766267,Y7TmO12,-3.9689209604999993
mp-32586,Nd2S3,-2.3570386306875
mp-558126,LaH4S2NO8,-1.9296706328125
mp-30091,MgB9N,-0.440278225568182
mp-639900,K(GeSe2)2,-0.751230216482142
mp-27563,Rb2In4O7,-1.8943283266666642
mp-765416,Li2Fe2Si8O19,-2.913452989408601
mp-11470,Hg2Pt,-0.080404438333336
mp-17250,K3SbO3,-1.8156306434642842
mp-558713,LiAlSiO4,-3.190973626190476
mp-973441,La(ErS2)3,-2.420968008
mp-28755,GdCBr,-1.269569594999997
mp-9361,RbLaS2,-2.141000711875
mp-11038,Zr6Al2Fe,-0.30235085444444704
mp-2062,LaSi2,-0.7082368199999981
mp-651005,In3Bi7(Pb2S9)2,-0.681858960312499
mp-7914,NaScO2,-3.190776871594827
mp-754668,Hf3N2O3,-3.073714271874999
mp-34139,Mn2CrO4,-2.189480853694581
mp-10994,TmCuAs2,-0.899393981249999
mp-626093,H7NO6,-1.108912725982143
mp-669496,PtI4,-0.433000066749999
mp-773469,Li4Mn5Te3O16,-1.885605225821018
mp-570757,Nb2Tl3CuSe12,-0.769117696006945
mp-763331,LiMn2F5,-2.979077994274425
mp-16740,TiGePd,-0.6851481861111101
mp-24142,MgAlH4O2F5,-2.652837036923077
mp-26767,LiNb(PO3)4,-2.593350152328042
mp-699352,LiFe2(PO4)3,-2.186144102625661
mp-6019,Sr2YNbO6,-3.46656378
mp-971707,Tm2Mg2O5,-3.155564397222223
mp-765311,LiVCrP2(HO5)2,-2.404784103242297
mp-949028,Sn,0.041698340652171005
mp-704184,LiMn(PO3)4,-2.455653628463099
mp-7874,LiGaGe,-0.267365490277776
mp-696125,Li10Si(PO6)2,-2.616900460704762
mp-754815,YBr3,-2.30537281125
mp-556775,ZnS,-0.9619322998437501
mp-1018737,KMgP,-0.628996292297619
mp-764333,V3(OF3)2,-2.844964132727274
mp-772572,Rb6Co2O7,-1.491538390999998
mp-1007694,SnPO4F,-2.532968440306123
mp-13903,ZnSnF6,-2.647906428125001
mp-766168,Ti4SnO10,-3.173813669888888
mp-772781,Lu2B4O9,-3.282634584
mp-766983,LiCa2Nb3O10,-3.149551102552083
mp-18882,VSiP2O9,-2.7472908507142852
mp-1013526,VS2,-1.183124923333333
mp-777235,V5CuO12,-2.213105715
mp-769609,Li4VCr3O8,-2.420048200833333
mp-782065,LiTePO5,-2.216372410580357
mp-582394,Nd2Co7B3,-0.273977871452108
mp-569120,NdPt3,-0.848344491874996
mp-770367,LiV2(SO4)3,-2.098420746712962
mp-21357,U2Fe2Sn,-0.15102722799999502
mp-626716,KHO,-1.545632252833333
mp-570971,Sr3Ga3N5,-0.776397881704547
mp-10857,Tm(BC)2,-0.534900606000002
mp-676400,TlNO2,-0.7578049145833351
mp-687204,NdReMoO8,-2.575887152727272
mp-561551,Y2Si2O7,-3.648074786818182
mp-780886,Mn3Cr3(CoO8)2,-1.608057781824713
mp-772456,Li2Mn3CuO8,-1.8200563025328411
mp-767065,LiMn3F10,-2.782731830151887
mp-22583,KInP2S7,-0.819734610518397
mp-567729,La7C3I10,-1.447920901749999
mp-28072,La2Be2O5,-3.491867624444444
mp-759280,LiZr2(PO4)3,-3.162862737903439
mp-778864,Li2Mn3(PO4)3,-2.536877028969416
mp-18835,VPO4,-2.700694675773809
mp-559916,Na17Al5O16,-2.266138905880217
mp-555559,Sm3NbSe3O4,-2.921611879730114
mp-779571,La3B5O12,-3.290878905666667
mp-559516,K3Nb(SO4)4,-2.224065158927082
mp-10251,LiDyO2,-3.273900814999998
mp-766360,La6Cu6O17,-2.451357166379311
mp-849516,Li4Mn5(CuO6)2,-1.847707208173413
mp-6507,Na2Zn2Si2O7,-2.576323540596816
mp-505513,Nd(Re2Si)2,-0.426501856428574
mp-530933,Li5P2N5,-0.9514304004092261
mp-9047,RbBS3,-1.017444626333323
mp-12964,TbNi4B,-0.493307362638887
mp-504748,P3Pb5ClO12,-2.29718671494898
mp-771360,Li6MnSn3(PO4)6,-2.513795895019704
mp-12996,LaMg2Pd,-0.5294970237500001
mp-4253,V(CrC)2,-0.17820022899999902
mp-850898,LiMn2(BO3)2,-2.421163056138975
mp-779358,Na3VO4,-2.239922277392241
mp-568436,Sr7GeN6,-0.738674926785714
mp-644739,LaGa6,-0.414350037857143
mp-541462,SrTa4O11,-3.431262843708332
mp-2557,Zr2Al,-0.397530758333334
mp-764557,V6O5F19,-2.725078075666667
mp-20619,SbRh,-0.528712574999996
mp-16726,LiB,-0.153968744583333
mp-555393,KBi6BrO9,-1.688726687779412
mp-570061,Nd3NCl6,-2.456779562374993
mp-28293,SnPCl9,-0.8789706541341991
mp-13554,SnHgO3,-1.453517254500001
mp-8248,Rb2TeO3,-1.832296276111109
mp-975601,Pr3Cl,-0.23930065868055903
mp-555066,Mo6PbS8,-0.929126457999999
mp-776655,Ti2O3,-3.218824381833335
mp-31116,LaScO3,-3.950563377999999
mp-974435,Re3N,-0.08897282156249901
mp-764786,Li4Mn(OF)2,-2.443208048196041
mp-556953,RbPS3,-0.9794650449285661
mp-1646,Li3Hg,-0.293955131875
mp-975650,Pr2ZnHg,-0.36310890645833505
mp-675420,Pr4Ag2Se7,-1.643578149723556
mp-21371,VCoSi,-0.544377296666669
mp-867200,Pm,0.0
mp-864913,Na3UF8,-3.461805859583334
mp-770430,GdTa3O9,-3.482360868230767
mp-2134,ErAl3,-0.45235782583333106
mp-778347,LiFeF4,-2.350299510972222
mp-558134,TlF,-1.8654960350000032
mp-18531,K2Cd3Te4,-0.847990985407406
mp-867812,LiAlNi2,-0.368700581666667
mp-20595,Eu(AlSi)2,-0.404180725
mp-773602,MnCo3O8,-1.234280509827585
mp-2017,LuAs,-1.73668287958333
mp-722189,H8PtN2(ClO)2,-0.8358412673333331
mp-17288,Li2ZnSiO4,-2.6416847680208333
mp-865986,Li2CaGe,-0.42275544541666604
mp-31419,LaSb5O12,-2.182705333611111
mp-16236,KAgSe,-0.811976038753471
mp-467,Th3N4,-1.8844950049999951
mp-13630,Rb3NaBe2F8,-3.299471241705665
mp-998159,TlFeF3,-2.067485199666668
mp-30321,Y2P4O13,-3.15568769781955
mp-641919,KLi3Ca7Ti2Si12(O18F)2,-3.356045146093916
mp-610522,Mn2As,-0.16062474778735703
mp-3769,ErBRh3,-0.8142960758333341
mp-761916,NaH4Au(Br2O)2,-1.126315193031609
mp-774235,LiCr3O4,-2.055587825416665
mp-774365,LiMn2F5,-2.972316543649425
mp-568203,K2Th(PSe3)3,-1.029776139301487
mp-10240,ScNiP,-1.202755195714283
mp-753858,TiOF2,-3.563759733333334
mp-5200,PrBRh3,-0.6683155041666621
mp-1601,TaRu,-0.346225666166667
mp-22014,Sc2SiB2Ir5,-0.8673649403333321
mp-771040,Mg(IO3)2,-1.34888171111111
mp-554175,SiO2,-3.168881172916666
mp-2831,FePd,-0.063690459999999
mp-7800,LiSmO2,-3.178103438958333
mp-776627,Li3FeF6,-2.983863082833323
mp-781598,Li3Mn4(BO3)4,-2.464913868190905
mp-864994,DyHg3,-0.40668057312500105
mp-603347,TiNi,-0.37845085166666603
mp-30771,Lu6Ni2Sn,-0.44505851222222204
mp-979340,Sr2LiTaN3F,-1.798932879145835
mp-555983,Er2SiO5,-3.836669838750007
mp-1006112,Na3Co,0.661498431336206
mp-778795,Ta2Zn4O9,-2.419465131644445
mp-705362,Li2Co(PO3)5,-2.454015545429607
mp-504265,CuPO4,-1.887335596607143
mp-768110,Li2Ti3CoO8,-2.982573306904761
mp-757514,Li4Cu2Si3O10,-2.465885658859649
mp-760414,Ti3PdO,-1.454954431000001
mp-7944,NaSb,-0.448723322499999
mp-972763,Si3Pt,-0.051141577499997
mp-29878,Re2PCl13,-1.138764145915178
mp-755530,Na3CuO2,-1.345845503606317
mp-756177,Li4ZrNb(TeO6)2,-2.375988595333333
mp-16491,SrAl9Co2,-0.40754275583333405
mp-768315,Mg(IO3)2,-1.345458546388888
mp-780113,LiMnP2HO7,-2.412002011400007
mp-29642,ZrBi2,-0.27491492499999703
mp-27480,Sn2OF2,-2.205263268999999
mp-972767,Si3F,-0.24723119468750002
mp-9055,LiAlPdF6,-2.876894756697527
mp-770692,Ga2WO6,-2.189594627222222
mp-30837,TbTlPd,-0.658099057777775
mp-22318,SrAl2,-0.285075443333332
mp-601401,KCSN,-0.506653317335066
mp-5156,ThP2O7,-3.278453477178571
mp-1001021,Y2ZnSe4,-1.767582398482142
mp-861636,Er2ZnOs,-0.326975474999997
mp-756246,NdZrO3,-3.5634469955
mp-772848,K3ZnPCO7,-2.296817968568681
mp-2491,ErSe,-1.925282436197914
mp-697170,MgH6(BrN)2,-0.9028302131818171
mp-757660,Li2CuCO4,-1.8166595295833332
mp-631563,TlCoAs2,0.617852347291666
mp-570547,Sc6Ni16Ge7,-0.605835830172413
mp-9710,Sr2Si5N8,-1.419367493999999
mp-556910,Sm3SiS6Cl,-2.061919059318182
mp-28483,WBr6,-0.9345107228571431
mp-570850,LiCa2InGe2,-0.561081513749999
mp-849493,Li2FeF4,-2.8900374302380953
mp-776313,Ti2N2O,-2.128958884083334
mp-705361,LiCrP2O7,-2.553954392738092
mp-769573,LiTiVO4,-2.882482311428571
mp-698475,K4ErP6H6ClO21,-2.43695891857326
mp-16737,Na2BeB2O5,-2.723872338609195
mp-765481,Li2AgF5,-2.16729493135417
mp-7614,Si(Ag4S3)2,-0.285906270458332
mp-776332,Na(BH)5,-0.279452651993209
mp-505148,ThPbI6,-1.274600211249999
mp-707014,P2H10S4N2O,-0.6214484964097741
mp-557970,SrCu(TeO3)2,-1.8293405805
mp-978840,SrLi2(SiN2)2,-1.222752946018515
mp-28688,SrHgO2,-2.040065678125001
mp-644923,SiO2,-3.255982241458333
mp-973834,PdAu3,-0.09164175499999701
mp-22862,NaCl,-2.03840117125
mp-21043,RbPbF3,-2.744894870499999
mp-28997,Y2AlGe3,-0.6346373975
mp-17240,RbNa3Li12(SiO4)4,-2.623642914489942
mp-555253,La5Ti2AgS5O7,-3.061508407541667
mp-18026,SrZn11,-0.195248423333333
mp-1008762,TaN2,-0.695192232305553
mp-5693,NaCrS2,-1.192343681594826
mp-5852,Pr(SiOs)2,-0.680903862333332
mp-972649,SmHoRu2,-0.25038717999999904
mp-866075,MgTaIr2,-0.5456193755833331
mp-12755,ThRh,-1.008240007499992
mp-757878,Na5Cu(HO2)2,-1.450988827033045
mp-556538,Na8(CuO2)5,-1.371228103088456
mp-770860,Li4Mn2Fe3P6WO24,-2.431952302426312
mp-978278,Na(BH)6,-0.36155540134615405
mp-12762,PrB6,-0.5475135952380941
mp-15931,NdCrS3,-1.685189645499999
mp-977357,Ta2ReRu,-0.43794802304167
mp-541682,K3AlAs2,-0.496511515708332
mp-569918,K13Na2W7N19,-0.633116986634356
mp-30764,LiPt2,-0.495923112222224
mp-768061,NaMnPCO7,-2.170341459904837
mp-999558,Mn2SiNi,-0.38401348176343003
mp-775843,Zr2N2O,-2.333471655749997
mp-24148,LiLa2HO3,-2.889274411369049
mp-1018027,VN,-1.352527919374999
mp-961666,MnNbAs,0.32608087152298704
mp-560789,SbI(ClF3)2,-2.01437925925
mp-768347,Li8NbS6,-1.391486390777776
mp-16621,HoAl7Au3,-0.568672183181816
mp-29927,Pb7(BrF6)2,-2.471866938095236
mp-626037,Si2H2O5,-2.569457766944444
mp-935811,KNbO3,-2.844397452450001
mp-8412,LiCeO2,-3.089388760208332
mp-974938,Rb3Li,0.14514899354166602
mp-978997,Sm(NiBi)2,-0.298366729000001
mp-690552,SrLaMnMoO6,-2.821086028293104
mp-768518,LaAlO3,-3.669252299333332
mp-982393,Pm2ZnAg,-0.308341131250003
mp-759849,Li2Ti6Zn3O16,-3.01938519691358
mp-2776,Ga2Au,-0.23312863000000003
mp-1006245,ErNp3,0.6838113834375
mp-26542,Sb(PO3)4,-2.371370030357142
mp-510438,InPt,-0.5714708929999971
mp-776360,Zr2N2O,-2.334325410749997
mp-704488,Th(MoO4)2,-2.523325558080808
mp-765566,LiAg2F6,-1.665231676388892
mp-975346,RbMnO3,-1.378088158086207
mp-777447,LiFe2F7,-2.649717116333333
mp-625578,H5BrO2,-1.11206063140625
mp-16807,Dy3(AlNi3)2,-0.562937674090908
mp-722,Pr3Se4,-2.148745348749997
mp-767538,NaCePCO7,-2.7321256682747412
mp-28431,Sb(IF3)2,-2.054908403333332
mp-31176,HoNiSn,-0.6765381811111051
mp-4044,ErAgSe2,-1.432454579713541
mp-7940,KNbSe2,-1.214662654234374
mp-11684,SiO2,-3.259105474166666
mp-2502,TmCd,-0.291594430000003
mp-849772,LiTi3Nb(CuO4)3,-2.5026851721666663
mp-730585,LiBH2OF4,-2.5833748456944443
mp-752529,Li5CrS4,-1.304836018666667
mp-862912,PmHgAu2,-0.654513036250001
mp-8883,GaAs,-0.44081263125000003
mp-25871,Li3Cu2P5O16,-2.386644062815933
mp-961703,NaLiPt,0.19207614559387
mp-17375,K2Na3TlO4,-1.4526352391971271
mp-22432,Ti4Cu2O,-0.973988638333333
mp-778861,LiV2OF5,-3.037475187592593
mp-34381,H4IN,-0.566551084166667
mp-265,TaIr3,-0.757641904333333
mp-12055,LaCd2,-0.34049516166666505
mp-763204,MnOF,-2.3395145972270113
mp-472,UAl2,-0.24033869666666402
mp-28662,Tl2SnTe3,-0.46936900361111206
mp-684027,Mg3(MnAl9)2,-0.099934075472263
mp-771669,Li5Mn5O12,-2.044698977105538
mp-768971,Li(BiO2)3,-1.576079333333334
mp-5029,Ho2Cu2O5,-2.610879746944443
mp-3440,Li2(LuGe)3,-0.6402934958333331
mp-699453,RbAs2H5O8,-1.571865657343749
mp-774417,Sn3P6WO24,-2.483796874789916
mp-975055,Rb3Ac,0.483285228749999
mp-754353,Zr3N4,-1.800390252857143
mp-753720,Li3BiS3,-1.182777544642856
mp-774247,Na3FeBSO7,-2.148321354677276
mp-851357,Fe2S,-0.17731581011904501
mp-778859,Li3Mn2Fe(BO3)3,-2.449807223797892
mp-972529,SmP3,-0.44843093285714203
mp-555580,SrZr4(PO4)6,-3.2585601770816313
mp-2596,NpN,-1.6285575687499971
mp-504139,Li3Ni2(PO4)3,-2.252364088571428
mp-779539,Li2CuPO4,-2.295021557038691
mp-28357,NbHg3F6,-2.208588492250001
mp-549695,GdBi2ClO4,-2.4337813325
mp-29644,GeBi4Te7,-0.22652501333333402
mp-28558,RbGeBr3,-1.4168271675000002
mp-29240,LaSi2Ru3,-0.6361099816666661
mp-9550,ScMnSi,-0.600586953199235
mp-20127,NpAsSe,-1.11098700786459
mp-3686,YbBRh3,-0.8939846434999991
mp-861504,PrBO3,-3.446497388666666
mp-867254,SmAgAu2,-0.583560251666669
mp-975425,RbAsO3,-1.358327302
mp-554364,MgBeAl4O8,-3.317258059285714
mp-865577,Li2CdAu,-0.435236238333331
mp-18591,KZnPO4,-2.50704106562755
mp-28829,Li2ZnBr4,-1.5751778163095231
mp-971661,Si,0.10747738456521701
mp-972569,Sm(MnAl2)4,-0.30845677205570304
mp-19745,GdInIr,-0.692498597777775
mp-974417,Re3Sb,0.5845286912500001
mp-1458,Nb3Ir,-0.40266292874999904
mp-865756,YbGaPd2,-0.8867221462499971
mp-556357,Ni18Bi3AsS16,-0.5614187307236831
mp-558674,K2NaFeF6,-2.94678372858793
mp-863372,LiCu2F6,-2.067219097962968
mp-755289,Li3Y3ZrO8,-3.365374738
mp-567502,Ga8Cu3Mo2,-0.18789055519230702
mp-779759,LiV4OF11,-3.098208596960785
mp-20402,Lu6UO12,-4.065957644210526
mp-773184,Li2MnSnO4,-2.123191564949713
mp-558289,UAg2(SeO4)2,-1.771008178693908
mp-8000,SrSn(BO3)2,-2.832876895333332
mp-667315,ScNb6Cl13O3,-2.1047936925
mp-557829,Lu2Te5O13,-2.206744143333347
mp-1439,TiO2,-3.503531851111111
mp-983562,Na3Nd,0.31694371946120703
mp-721958,K4P4(H2O5)3,-2.259307832416255
mp-13792,KTaP4O13,-2.789979532534461
mp-560555,Li8Bi2PdO10,-1.843717397460318
mp-9417,Sm(CuO2)2,-2.047060307142881
mp-756118,TbSmO3,-3.839365544333334
mp-19272,TbCrO4,-2.778189815277777
mp-775695,Li4Mn3V2Sb3O16,-2.150410828468801
mp-866162,YMgAg2,-0.29363824458333104
mp-560977,KTiPS5,-1.239830269090773
mp-689684,P2O5,-1.705508762755101
mp-755574,LuAlO3,-3.783986143833334
mp-977572,Hf2MnRh,-0.5476585286206871
mp-821,NbO2,-2.89526383375
mp-29699,TiNb3O6,-2.903543185833335
mp-978268,MgZn,-0.0731228575
mp-16319,Rb3Sb,-0.395674879375
mp-760385,In2Ag,0.045937750648154
mp-754631,NaCu2O3,-1.140332112729885
mp-781010,Fe7(OF3)3,-2.2035014152631582
mp-28157,P(HO)3,-1.61373213387755
mp-505228,Sr5Nb5O17,-3.280717725925927
mp-767321,Li7(SbS)2,-1.000076191666666
mp-780561,La3Ga5O12,-2.9230905920000003
mp-23939,H2O2,-0.850325700624999
mp-775165,Li2Mn3CuO8,-1.840547514497128
mp-18822,Mn2PO4F,-2.652584821938116
mp-2529,PrRh2,-0.625919645555551
mp-21117,FeGe2,-0.06333883666666601
mp-776911,MgO,-2.8999533087500002
mp-3153,Na4Ge9O20,-2.152216912894461
mp-583084,Rb3Er3(PS4)4,-1.373280925810438
mp-979254,SnGe3,0.292262777499999
mp-19897,Eu2TeO2,-2.719127551333334
mp-20185,LuNiSb,-0.9881912088888831
mp-561480,NaNiF3,-2.557812885499999