material_id,formula,formation_energy
mp-540395,Sn4(PO4)3,-2.24045972362782
mp-570902,Pr6RuBr10,-1.9089118988235292
mp-554906,Zn2BiPO6,-2.130953433464286
mp-973869,LaCdO3,-2.065048769999999
mp-27264,NaTiF4,-3.448850022452101
mp-30850,TaPt3,-0.7068257280833321
mp-768414,Li4VS4,-1.360571907037036
mp-6732,La2MgIrO6,-2.939900697000001
mp-774848,H10SeO8,-1.224821179202302
mp-28772,SbSCl9,-0.519048123664772
mp-27505,Fe3Sn2,-0.001731922999998
mp-779309,V4(OF3)3,-2.954167731875001
mp-981550,RbTmO3,-2.340062960500002
mp-776749,Li2V3CuO8,-2.207901110833334
mp-21165,PdSe,-0.391958783281246
mp-11490,Li2ZnSn,-0.27048706041666604
mp-32742,U16N25,-1.7421022480792692
mp-530217,PrZr3F15,-4.106514681535087
mp-26312,Li4Cu(PO4)2,-2.465980925174602
mp-553912,NaZr2(AsO4)3,-2.502631145771073
mp-774386,Li2Cr3P4(HO4)4,-2.290420843973727
mp-22720,RbSr2Nb3O10,-3.14837259234375
mp-9248,Cu2SiS3,-0.52910290001409
mp-752686,Sm3TaO7,-3.79243032112121
mp-721426,NaPH7O6,-1.629088078984811
mp-2271,NaPt2,-0.46128716666666403
mp-12872,ErIn5Co,-0.204791339047618
mp-510084,Ho2Ti3Si4,-0.8589068213888891
mp-644332,KMnF3,-3.014068880536207
mp-975606,InN3,2.332258972812504
mp-570700,Hf3Tl2(CuSe4)2,-1.203561037027778
mp-7000,SiO2,-3.27283134388889
mp-696275,SnH8(NCl3)2,-0.9779694191176471
mp-5226,K2SeO4,-1.8025923552633931
mp-2349,YCd3,-0.254545123749997
mp-19765,In2HgTe4,-0.404802539642856
mp-773202,Li5Mn5(SbO6)2,-2.045062144846744
mp-14424,Sr(AlS2)2,-1.752220800714285
mp-556518,K2Pd(NO3)4,-1.134821119710526
mp-3375,Nd4Ge3Rh4,-0.8768973445454541
mp-975292,RbMoO3,-1.9528968765
mp-13534,LaZnNi,-0.391874919444444
mp-971875,UGa,-0.1724258375
mp-771907,Li4Mn5Sn3O16,-2.067442550642447
mp-5061,Li5ReO6,-2.3080890799305562
mp-643356,SrH2Br2O,-1.887528864583333
mp-862361,Sc2NiOs,-0.497469572499998
mp-28671,ZrTe2Br5,-1.267670202291665
mp-5105,La(SiRu)2,-0.8646734290000011
mp-28256,V2Se9,-0.45850979786931906
mp-707929,LiBH2C4O9,-1.7513254417647062
mp-569766,TeI,-0.271386257083333
mp-757053,LiNb(PO3)4,-2.56263851010582
mp-772215,LiNb8O10,-2.3886416151754393
mp-772765,K2PrPCO7,-2.739271542567459
mp-17217,Tl3GeTe3,-0.43467413857143505
mp-989528,Rb2AlInH6,-0.166062167916665
mp-17989,K3PS4,-1.240701872986606
mp-4326,KErS2,-2.165880855677082
mp-11494,LuPb3,-0.17705219666666402
mp-569779,ScSbPd,-1.1327451249999991
mp-24292,Sr2H6Ru,-0.6912334919444441
mp-23443,MnTlI3,-0.753259861252875
mp-752615,Li4(CuO2)3,-1.522853394102564
mp-1016108,TiZnN2,-1.028000667083334
mp-1129,ScIr,-1.058465942499999
mp-643458,LiHSO4,-1.93676992922619
mp-27576,Sc2GeO5,-3.304898370833333
mp-770607,Li3VSi4(HO6)2,-2.728235645568181
mp-675416,Sr4Nb2O9,-3.203051905666667
mp-10388,Nb5(PPd)4,-0.7436077045054941
mp-19153,Lu2Mn2O7,-2.938114664017765
mp-685991,Li5SiP3,-0.5903389078439151
mp-29152,Zr2CoP,-0.9267144636607141
mp-21526,KPb,-0.362189247187497
mp-4104,HoPO4,-3.506035078273807
mp-975738,Pr(BOs)2,-0.41716752899999604
mp-770687,LiCr2O5,-1.970943045104166
mp-753751,LiAgF2,-2.048525999166667
mp-27144,TlPO3,-2.257728706095238
mp-23396,MoNCl3,-1.09528815100001
mp-774736,LiCuS,-0.90352046611111
mp-561218,KP2Au5S8,-0.561467046658481
mp-9007,Na6P4W,-0.544517753809524
mp-18584,Ho2SiSeO4,-3.401765284042968
mp-5025,Zr2CS,-1.461899039374999
mp-29912,Sb2MoSe,-0.30846741664062405
mp-14500,Sr(As3Pt2)2,-0.77549654818182
mp-28144,SiBi2O5,-2.280801145625002
mp-2795,ZrC,-1.0136533575
mp-776432,Na2LiCuPCO7,-2.145280560441139
mp-12774,ThIr,-1.122721079999991
mp-1019316,Tc2N,-0.23295873624999702
mp-28356,U6Cu2S13,-1.552821248690472
mp-556869,Sb5IO7,-1.6352659711538462
mp-554657,Na2Tl2B10O17,-2.6569499147126443
mp-1547,NiS,-0.6106647137499981
mp-19743,LaFeGe3,-0.530339434000009
mp-768156,Li7(SbS)2,-0.9855195216666651
mp-1119,Nd2Te5,-1.286536387857142
mp-1013552,Sr3P2,-0.8140361564404771
mp-767433,LiV2OF5,-3.05267264037037
mp-771906,Li2AlCoO4,-2.331791116770834
mp-764856,Li6MnV3(PO4)6,-2.6479542596447043
mp-675801,KNbCl6,-1.89249050215625
mp-755219,ScTlO2,-2.680238327083334
mp-31081,Sc(MnAl2)4,-0.334804567440308
mp-7829,MnNbSi,-0.6115613142720291
mp-770735,ZnCrO4,-1.65685013375
mp-770274,NiP4,-0.164049944952378
mp-777480,Li2Ti3MnO8,-3.056905109792693
mp-777909,Li2Cr2(PO4)3,-2.563869697136589
mp-7361,Sr(CoGe)2,-0.36121922
mp-850944,Li21(Co4O9)2,-1.706694177234042
mp-645208,Sr2Co2O5,-2.137067267222223
mp-9868,KCu3S2,-0.6254775112083331
mp-10288,LaCuTeS,-1.561600344791656
mp-763610,LiCrSiO4,-2.766164678333333
mp-18585,RbAgSe4,-0.6960230001736081
mp-26389,LiNb2(PO4)3,-2.7777630712367722
mp-20760,La2In,-0.48750918999999704
mp-676519,Sr6Nb7O21,-3.2087102763235302
mp-1926,HoFe2,-0.094602639999999
mp-31379,Zr2Sb,-0.741361555000002
mp-865300,Tm2AgIr,-0.663874632916668
mp-2680,LaB6,-0.625482852857142
mp-978285,Mg3Mn,0.19579067676724102
mp-3349,Sr3Ti2O7,-3.4925284151388603
mp-13380,HoZnRh,-0.7397249399999961
mp-40451,NaGd3Ti2(SbO7)2,-3.122880093774817
mp-753056,HoBO3,-3.467820158833331
mp-29164,SrBiO3,-2.260618635000001
mp-23487,KIO3,-1.366622997449999
mp-676330,Nb12Br17F13,-2.063243858809524
mp-12662,Re24Mo5,-0.029093352758622
mp-695951,LiAg2P3(HO5)2,-2.044618744894181
mp-625913,TeHO3,-1.350735491333333
mp-674531,Li5GeP3,-0.5314046761772481
mp-643245,K3MnH5,-0.168280741770114
mp-770575,LiCrPO4F,-2.702905899903274
mp-573908,Sr11(MgSi5)2,-0.391994873043478
mp-31084,ZrGe2Rh,-0.7537502633333321
mp-973256,LaMgTl2,-0.298147689166671
mp-5659,Ti3SiC2,-0.911486296666666
mp-974959,Rb3Li,0.147673773541666
mp-768788,Li3Bi(BO3)2,-2.392489375277777
mp-37947,Na4C2O5,-1.7741758291379321
mp-571452,KPSe3,-0.79778762378482
mp-961678,ScCoTe,-0.9258110738888891
mp-14629,Li2EuSiO4,-2.984761698958333
mp-775900,NaLiCu(PO3)3,-2.369731837909415
mp-11873,TlAsPd5,-0.37178084464285804
mp-18859,Sr5Cr3O12F,-2.785607708571428
mp-999047,Ti2MnSi,-0.33391479614942504
mp-554483,KCd3H8Cl7O4,-1.434553105967391
mp-769456,Na5Fe2P2(CO7)2,-2.242318640847291
mp-11404,PrGa,-0.673322428333332
mp-3197,TbAlPd,-0.9156598811111141
mp-770779,VCrO3,-2.441186287499998
mp-555359,KMnF3,-3.015858585036206
mp-4997,ZrGeS,-1.3036202658333331
mp-775336,Li4V2Co3Sb3O16,-1.8264804547619051
mp-28988,In7Br9,-1.008634638697915
mp-648414,V2PS10,-0.8532792550686801
mp-569564,Th2Al2C3,-0.469433602142856
mp-561303,NaSb(PS3)2,-0.7175818455665011
mp-753055,TbBi5O9,-1.967729296111112
mp-680183,Te5As2Br4O5F26,-2.03942771484127
mp-3854,Y(MnSi)2,-0.671137937793102
mp-760447,Tl2(PbO3)3,-1.140957810119048
mp-1207,NdFe2,0.080921214166667
mp-505600,Ta3SiNi2,-0.428309274083337
mp-19239,Mg6MnO8,-2.838937343028735
mp-780109,Li4Cr5(P3O11)2,-2.532606250707849
mp-21582,Nd4In5S13,-1.4699905017755501
mp-867859,Sm2IrRu,-0.495227183125003
mp-757002,KZrPCO7,-2.759730607899349
mp-2050,HoSb,-1.3424984824999981
mp-20241,Mg4P6Rh7,-0.7524238751680671
mp-556994,SiO2,-3.184553575833334
mp-976008,NdTmMg2,-0.06921748687500101
mp-756935,Li3SbO3,-2.06343260142857
mp-2396,HoCo2,-0.20158497666666303
mp-780196,LiMnSiO4,-2.565018183037767
mp-16771,MgSe2O5,-1.7574014637109432
mp-634984,Mg5(Si8Pd5)2,-0.42778318306452
mp-767526,Na3CuPCO7,-2.135967272983137
mp-765902,ZnNi4O5,-1.275379956999999
mp-758842,NbH14C4NO14,-1.425088006176471
mp-752773,Li4CuF5,-2.716604668166664
mp-27742,K2CdO2,-1.406970080899999
mp-766163,TiSn9O20,-2.233100057611111
mp-12788,Nd3Au4,-0.808723337500002
mp-862731,Pm3Ge,-0.39938262562500104
mp-755707,K3LiTi7O16,-3.243218656237653
mp-677237,Y3U2O10,-3.902526849999996
mp-23197,TlI,-0.8453849241666711
mp-776760,Ti3FeSb2(PO4)6,-2.663964139107142
mp-989563,Rb2NaTlCl6,-1.799518091971264
mp-18450,Lu(FeGe)6,-0.276810709743589
mp-557531,Pb2S(O2F)2,-2.173825614722221
mp-7972,RbLaO2,-2.960912605625
mp-559909,Sr3Ru2O7,-2.360164598750026
mp-1020628,SrGe(PO4)2,-2.793862971190475
mp-754226,YLuO3,-3.965580118333333
mp-22981,TlIO3,-0.968889334666667
mp-555202,KTeHOF4,-2.371652221895833
mp-17942,MgNi2P,-0.555803900535713
mp-32662,WO3,-2.181089881249999
mp-703352,UP2H6O7,-1.834515681830356
mp-13510,Ho4In(NiGe2)2,-0.767691381515147
mp-733844,Na3GaP2H2O9,-2.360196787848449
mp-4632,Sr3(PO4)2,-3.3192211222527472
mp-559584,LiCaNiF6,-2.984132797592592
mp-760231,LiSn2(PO4)3,-2.516842058181216
mp-622171,VSb2O5,-2.019535985625
mp-12972,Zr6Sb2Pt,-0.8231638077777771
mp-861991,PaMn2Al,-0.154147683965517
mp-8187,K2ZnO2,-1.5774439758999992
mp-763965,V2(OF)3,-2.6470926612500003
mp-560687,Nb3Te8I7O,-0.7063601826754391
mp-773547,Li3Fe2OF5,-2.610426863181818
mp-4672,TbPS4,-1.222408961746031
mp-557778,RbNbSiO5,-3.034918442291667
mp-31474,Rb2Hg7,-0.21101027361111302
mp-1009496,OsN,0.49186207750000205
mp-773116,La20S29O,-2.545721071249999
mp-769409,Y4Ga2O9,-3.4000874351666672
mp-770759,LiBiCSO7,-1.906087325075756
mp-764036,Li3Mn3CrO8,-2.103709455252873
mp-569265,Mg3Pt,-0.542864672083334
mp-3502,Zn2Te3O8,-1.6091611857692292
mp-976159,PrErIn2,-0.575244141249999
mp-556920,Tb9(SbO)5,-2.423901925526319
mp-559701,LiV2F6,-3.148444538703703
mp-849783,TeH14C3S3(N3F2)2,-0.7240096561021511
mp-8769,Rb2CoSe2,-0.9017993219375
mp-1018824,NpSbTe,-0.7913595468055591
mp-978275,MgB7,-0.15789122937500003
mp-4711,Li2CuO2,-1.6624233733333331
mp-707206,TeP6H30(NO4)6,-1.468530022119758
mp-690531,La5Mn5O18,-2.681546492309114
mp-770343,Li3V(BO3)2,-2.570221568611112
mp-2489,UC,-0.25545393249999604
mp-632623,MnIn2W,0.702948825517243
mp-768122,NaBiPCO7,-2.063012238729288
mp-756908,Li3SbO3,-1.977001602857142
mp-755714,SrEuO2,-3.081852313750001
mp-569296,Gd(NiSb)2,-0.620959411999999
mp-779907,LiMnPH2O5,-2.187684445590721
mp-775164,Li2NbCr3O8,-2.559328634761904
mp-679944,Li4Re6S11,-0.9950397351587291
mp-28201,Sr4(PPd)5,-0.9451931148724491
mp-24409,PH4I,-0.26682770910714204
mp-7810,UVC2,-0.49173687187500104
mp-562283,GePb3O5,-1.6350074155555552
mp-675189,Ho7(CuTe4)3,-1.322382311136364
mp-540310,Li2Mo(PO3)5,-2.575388232168737
mp-864984,MnV3,-0.08009572362068801
mp-10481,RbAg3Te2,-0.526338080972218
mp-752717,La2SiO5,-3.756872196874999
mp-978536,SmHoHg2,-0.5692628550000051
mp-23896,LuHCl,-1.581415829305554
mp-865973,PHPb2F10,-2.697820168278061
mp-8046,Ta4N5,-1.269136511453701
mp-758234,P2Pb3O8,-2.325555694047617
mp-21017,Y3PbC,-0.5440004069999951
mp-722369,Na3B5(HO5)2,-2.501749714748563
mp-9694,Tm3(GePd)4,-0.8842385700000011
mp-42599,NaYTiNbO6F,-3.366515650201151
mp-631406,ScTl2W,0.558372785694444
mp-620032,Ti2Se,-0.9861238599479161
mp-752638,LiCuCO3,-1.683997756388889
mp-554433,KAl(SiO3)2,-3.220683370725
mp-850445,Na3Zn4As3H12O19,-1.618795975771656
mp-673126,LiSb(PO3)4,-2.470062192328042
mp-756672,Li4Si4Bi2O13,-2.653259605905798
mp-764111,NaFe(PO3)3,-2.520219386629133
mp-22517,EuYSi4N7,-1.42741696423077
mp-17077,K2YF5,-3.7428008202500003
mp-19432,KNaV2O6,-2.404889912362931
mp-779328,NaCu2O3,-1.114387258563218
mp-696794,RbHSeO4,-1.50585336015625
mp-3718,ThTeO,-2.994860575555552
mp-18686,ZrCr5P3,-0.5866400471031721
mp-28567,LiBiF4,-2.815617924444446
mp-26883,Li3Ti2(PO4)3,-2.869104413529762
mp-772867,La2Bi2O7,-2.5663252636363643
mp-18684,KPF6,-3.079013984924107
mp-15901,Li2LaTa2O7,-3.214000063444443
mp-972367,UAlO3,-3.236607310999998
mp-15701,MgSiN2,-1.3166643900000001
mp-559779,Nd3SiS6Cl,-2.001260869374998
mp-777698,V2O3,-2.451144455000001
mp-10209,Y3Al3NiGe2,-0.7345551466666661
mp-764701,Li8Mn5O10,-2.038509285927037
mp-556185,RbNaTiO3,-2.772059853702107
mp-680171,KEu2CuS6,-1.692016484474999
mp-776684,Li3FeF6,-2.981191257833324
mp-22779,YbSnPt,-1.191797336111114
mp-676564,NdTh9O20,-4.238587321250001
mp-2967,La(CoB)2,-0.44624460799999704
mp-567753,La3CuSnSe7,-1.649447434869789
mp-774243,LiCrSnO4,-2.192023569404762
mp-684588,Sn3P4,0.206131102465984
mp-776523,NaLi3Ti2Al2(PO4)6,-2.958606519365871
mp-675930,In3AsSe3,-0.582065474479171
mp-983908,Er2ZnAu,-0.676950140416664
mp-980200,Zn3Rh,-0.34694018875000004
mp-13068,Lu2O3,-4.039624749416665
mp-2333,NdPd3,-0.790976059374998
mp-775327,Li2MnV3O8,-2.437405645685549
mp-975359,Rb(FeAs)2,-0.264757954499994
mp-2643,Ti3Cu4,-0.13434752285714002
mp-569264,NdIr5,-0.32368150180555705
mp-21023,Ti3SnC2,-0.878380308333333
mp-765463,ErH3(SO4)3,-2.030284707302629
mp-557171,Na2Cu(PO3)4,-2.4577612008594762
mp-570777,SrSi,-0.47707514800000006
mp-17539,KAsOF4,-2.579728197821428
mp-865977,LuCdAg2,-0.27337055916666403
mp-26446,Sn4(PO4)3,-2.242944623627819
mp-861624,LiLaHg2,-0.5219357516666671
mp-999208,Sc2MnSi,-0.26924373948275804
mp-22924,NaBi,-0.381193682500001
mp-19514,Sr2CrO4,-2.788419930178571
mp-753315,Mg3ZnO4,-2.693377385624999
mp-989504,Na2LiNF6,-1.8110903991091951
mp-570749,YbHg2,-0.40563138333333304
mp-768592,Na2SnBPO7,-2.444654029714011
mp-568231,RbMnBr3,-1.533113184752874
mp-28345,Zr6CI12,-1.192675499736841
mp-769377,SbSO4F3,-1.9454637675000002
mp-1016107,Hf6Zn6N,-0.561649408750007
mp-769383,RbB3Te2O9,-2.18564286288889
mp-569247,Zr(FeSi)2,-0.626345204
mp-2384,LaP,-1.816090526488093
mp-780496,Fe3OF5,-2.386842943888889
mp-779884,Sr5W3O14,-2.843939285227271
mp-779282,Li9Bi5O13,-1.808232487222223
mp-27980,U(OF)2,-3.674992431999997
mp-561469,Nd6S4N3Cl,-2.065002583571428
mp-9351,LuGeAu,-0.77743900555555
mp-763022,FeOF,-2.037927008750001
mp-1018893,PrCuSn,-0.5646826888888871
mp-754912,LiCuO2,-1.343571805833332
mp-567538,YbCu2,-0.30286873000000003
mp-14387,Tb3Al5O12,-3.690335603625
mp-21719,Sc2V3Ge4,-0.6249022819444441
mp-8603,RbAgO,-0.9997084205555551
mp-769026,Li2BiO3,-1.819617046944445
mp-28275,Rb2PrCl5,-2.5542136752083353
mp-704204,Li2MoP4O13,-2.555278688261906
mp-1013553,Sr3AsP,-0.962671677136904
mp-28516,LuMnGe2,-0.509471069899425
mp-773598,TiFe5(PO4)6,-2.458384693921958
mp-95,Sr,0.061362349999999004
mp-680087,ZnS,-0.9621155848315741
mp-28222,Rb3Sb2Br9,-1.4972595091071421
mp-769543,Li3Mn2(SiO4)2,-2.595848674724139
mp-776008,TiFe2Ni3(PO4)6,-2.276909493088625
mp-568186,YRu2,-0.300215128333331
mp-27938,Tl6SI4,-0.76957963977273
mp-10834,RbNd2CuS4,-1.871221602812499
mp-626219,H5ClO6,-0.9079528871874991
mp-5878,KZnF3,-2.8123817304500003
mp-765172,Fe3(OF)2,-1.867267177142856
mp-766558,NaMn3O6,-1.885040796517241
mp-615850,Pb2Se(NO4)2,-1.179653022103365
mp-974572,Rb3Si,0.399039660624999
mp-753171,Li2CuF4,-2.58869610047619
mp-504617,Ti3Co5B2,-0.5435433698333381
mp-492,TiN,-1.9426672827083311
mp-699466,ZnPH7C2N4O5,-1.139769521169643
mp-978785,Si4MoPt3,-0.6652515303125021
mp-27291,PaCl4,-2.149853655000001
mp-19402,V4Ag2O11,-1.969933968137255
mp-971826,Tl3H,0.408598028749999
mp-779720,Li5LaO4,-2.453089070416666
mp-13222,SmMg2Cu9,-0.166958945833332
mp-559798,NiF2,-2.23065729
mp-559061,K2Hg2SCl4O3,-1.61420317975
mp-30243,Mg3(HO2)2,-2.445613569166666
mp-757218,K4Na2H18Pd(IO10)2,-1.365085429026779
mp-865896,YbPmAg2,-0.322389368124998
mp-559251,K3Cr2(PS4)3,-0.9390850736589271
mp-2403,YPt3,-1.066453867500001
mp-774413,MnV3(PO4)6,-2.4840925257584763
mp-771081,Li3Ni(BO2)5,-2.5628369016228083
mp-973434,Hf2IrRu,-0.8583679349999981
mp-569072,La3B(CBr)2,-1.143968843020833
mp-1722,Zn13Fe,-0.030845707142856
mp-973886,Lu2CoRh,-0.622617043333334
mp-735489,KCaCrH10C6O17,-1.620434781520833
mp-780534,Rb(BH)5,-0.369302714962121
mp-631946,SnOs2Ru,0.604863694077387
mp-24658,SmH2,-0.7623552291666671
mp-30301,LiClO4,-1.008014841805556
mp-6441,K2PO3F,-2.7661808916632653
mp-769096,MnP4,-0.306579858967159
mp-10924,Mg(Co3P2)2,-0.6177639475973911
mp-555056,SbS2NCl6,-0.35713942555606104
mp-8870,LiMgAsO4,-2.378664632619047
mp-30855,UPt3,-0.9113287825
mp-546679,Nd2AlNO3,-3.077063477857142
mp-1697,TbPt2,-1.217029783333335
mp-9969,ScSi,-0.858396899999999
mp-7609,SbOF,-2.200063575208335
mp-7863,Rb2Sn2O3,-1.720435254285714
mp-982619,Ho3Tm,0.002350798750001
mp-29626,Na4Sn3S8,-0.8848432061666661
mp-11189,Li2MgSiO4,-2.952021454583333
mp-780312,Li5(FeO2)4,-1.848594704215686
mp-767952,NaMnPCO7,-2.171413345586654
mp-16135,Sm3NbS3O4,-3.024022469545456
mp-4053,YbSnPd2,-0.9269083487499991
mp-625616,H9BrO4,-1.182045177053571
mp-1002206,SiC,0.436798360631579
mp-867174,SrLi2Pb,-0.39514992666666504
mp-865210,TmLuMg2,-0.033474039166669
mp-683943,Na2MoC3SeN3,-0.44356901051023806
mp-3368,LiNb3O8,-2.980640704027777
mp-12860,Na3Cu2SbO6,-1.590456467844826
mp-27953,Mo2N,-0.36008341000000005
mp-581425,ZnS,-0.962029152457838
mp-540064,LiCo(PO3)4,-2.35952419621693
mp-764552,LiFe2(BO3)2,-2.2774510142424242
mp-999396,Nb3Ni,0.032775772499999
mp-1020146,Na2LiB5(PO7)2,-2.7806599083837913
mp-999454,NaVS2,-1.254552439094827
mp-9907,SrAs3,-0.720469139375001
mp-774946,Li2V3SnO8,-2.373876744761904
mp-22967,Li2FeBr4,-1.36176947095238
mp-6068,Sr2TbRuO6,-2.848211676666666
mp-19200,Tb2Mo2O7,-2.910913877121213
mp-776361,Ti2N2O,-2.131167224083334
mp-998198,RbCaBr3,-2.259962026499999
mp-13478,SmCoSi2,-0.731351906249999
mp-18926,La3Ni2O7,-2.823711413333334
mp-740750,Na4P4(H2O5)3,-2.200483281089265
mp-1394,Rb2O,-1.129998786666666
mp-31411,Th(Al2Cr)4,-0.202975191461536
mp-19746,NbPbS2,-1.129671128749999
mp-20972,YbIn5Co,-0.265331887857139
mp-30123,Hg2SeO5,-0.91931130685547
mp-25385,Li(CuO2)2,-1.092193814761904
mp-8736,Sr(Mo3S4)2,-1.033711656833334
mp-770680,Li9Mn2AlO8,-2.196633055418103
mp-20661,Ti2PbC,-0.662335298333331
mp-29303,Tl4Sn5S12,-0.6614990201587301
mp-559391,Pr3Si2Cl3O7,-3.377773632333332
mp-762224,Li4Cu3Sb(PO4)4,-2.225625571853741
mp-31139,TbNi,-0.43534600583333205
mp-29920,Rb5Au3O2,-0.8579937192500021
mp-755666,Yb2TeO2,-3.224592407500003
mp-11564,TmRh,-0.9775269550000011
mp-558330,IClOF,-0.940580373749999
mp-542382,ThTl,-0.25879688916666
mp-8490,LiGe,-0.247402372708333
mp-777546,NaSnO,-1.348088182126436
mp-861587,Pr2In8Pd,-0.44098772606060205
mp-554025,SNF,-0.594125374722222
mp-754377,K4TiO4,-2.295040512481481
mp-9929,ZrCuSiAs,-0.5891058181250001
mp-7366,Sr(AgSn)2,-0.37273311200000003
mp-557027,Rb2Be2Si2O7,-2.974367648076923
mp-764344,Li2FeSiO4,-2.541662714895833
mp-1514,UB2,-0.617520190000002
mp-771545,Li4Mn5CoO12,-1.9493447919540232
mp-761716,MnFe2O3,-1.614187806321839
mp-638141,LiSn5Rh3,-0.48027850009259004
mp-505207,Sm2Co7B3,-0.32204177520833405
mp-3803,Ta4AlC3,-0.5638284867916561
mp-638051,LuNiGe2,-0.657001830416666
mp-8256,ZnPtF6,-2.033013432499999
mp-761872,Na2Sn2O3,-1.6871750911083732
mp-10118,Mn3B4,-0.44506613192118205
mp-753257,LiCuF4,-2.123160671944444
mp-561413,Rb2Tb3AlF16,-3.641576159772727
mp-772596,Li2FeNi3O8,-1.291818489761904
mp-10476,NaEr(SO4)2,-2.535232650114942
mp-24144,Na5ScH4(C2O7)2,-2.074525789353448
mp-27579,Na4P2O7,-2.603446562100226
mp-7572,MgSO4,-2.402174846249999
mp-23497,Li2ZnI4,-1.159487545238094
mp-37949,NdSiAg,-0.5992806058333331
mp-558660,Mg2BiPO6,-2.710524105714286
mp-557561,Sm6Si4S17,-1.7640432565740691
mp-765731,Mn3OF5,-2.722999348754789
mp-22489,HfCuSi,-0.582629535
mp-862967,PmTlRh2,-0.515224799374998
mp-4738,PrScGe,-0.819248793888886
mp-18795,Mn3TeO6,-1.920252579045977
mp-975385,RbBO3,-0.5978283683333331
mp-22232,TlInSe2,-0.6729150770312481
mp-10572,NaPN2,-0.807427201505542
mp-767715,Li34(Sb3S2)3,-0.8817542446598641
mp-23582,KLi6BiO6,-1.985202468375
mp-10415,Yb3(GePd)4,-0.9455481222727251
mp-971820,ZnH,0.32673314999999903
mp-5914,Li3BN2,-1.00372135625
mp-560331,K2ZrS4,-1.555417740107142
mp-754011,Li(BiO2)3,-1.574218886333334
mp-981387,Hg3Bi,0.11578425124999801
mp-540146,MnPO4,-2.359951450012316
mp-6276,K2Cd2(SO4)3,-1.998486268921052
mp-975647,Pr3Ag,0.023750533333334004
mp-6598,K2Cu(PO3)4,-2.480498010161653
mp-9673,K2NiAs2,-0.406948084900001
mp-978489,SiPbO3,-2.171974545
mp-600067,SiO2,-3.239390451785713
mp-780764,LiCuP4O11,-2.309414955553221
mp-5019,YCo3B2,-0.46474048972222204
mp-695816,LiFeP2O7,-2.446216848874458
mp-757791,SmY15O24,-3.946509419625
mp-559984,Rb8AlAu3O4,-1.310884286406249
mp-7958,KLaO2,-3.0045629105625
mp-10495,NdCuS2,-1.602238972656248
mp-1357,P3Rh,-0.652406118482142
mp-865129,Lu2MgGe2,-0.713173204666668
mp-16744,Y(Al5Fe)2,-0.35377482576923003
mp-11100,YbIn5Rh,-0.48934177357142505
mp-770667,Li24MnCr11O36,-2.228356305387931
mp-777853,Na9Cu2O7,-1.3404686301340991
mp-643260,Na2H4Pd,-0.32011560642857
mp-775274,K2CrO4,-2.043013091714286
mp-27047,Li2CuPO4,-2.30056764516369
mp-771328,Rb4PbO4,-1.5173996547222202
mp-781671,Na6Ni2As(CO4)4,-1.83220391623365
mp-34569,Mg(FeO2)2,-2.050184188333333
mp-865015,MnSiRh2,-0.776416979870688
mp-975424,Rb(Mg4Al3)4,0.046989763534483
mp-753403,LiCu2(CO3)2,-1.570633899848485
mp-977325,Np3Be,0.24118245468749802
mp-974415,Re3Pb,0.9921363037500011
mp-561202,K6NbAs3O,-0.8344472975909081
mp-1034,Th2Cu,-0.09556743166666501
mp-557830,Na2Bi5AuO11,-1.447043983566244