material_id,formula,formation_energy
mp-972657,SmBiAu2,-0.60367778625
mp-755414,LiTiS2,-1.642262156041665
mp-23059,Rb2SnCl6,-1.8884658099999991
mp-12060,Nd(AsPd)2,-0.846399822499998
mp-8188,KScO2,-3.093135745562499
mp-3887,Li3GaN2,-0.70524114625
mp-2423,US,-1.6763183639062542
mp-770833,Li2SnBO4,-2.336329271666666
mp-541368,Tl4V2O7,-1.822846709102569
mp-4394,Pr2Sn2O7,-2.955287218030299
mp-558106,SnH58C16S4(N11O9)2,-0.606163464012606
mp-706910,MgB2H6O7,-1.9965081080208322
mp-582767,La3CuGeS7,-1.850407739791665
mp-4815,Pr(SiRh)2,-1.070856082333332
mp-976407,Li3Ac,0.180626576874999
mp-7976,RbGdO2,-2.979642334375001
mp-6336,Na3In(PO4)2,-2.546880178577879
mp-22444,Ta4FeP,-0.40036144232936505
mp-764547,LiFe2(BO3)2,-2.268088254015151
mp-558206,K9U6BiO24,-3.083181360881249
mp-767208,Sb17S27,-0.225930847361506
mp-759289,LiBi(PO3)4,-2.492903050661374
mp-567443,Sc4Si7Ni12,-0.7000067657971001
mp-30359,TmAg2,-0.35005619333333404
mp-13654,Y3Sb4Au3,-0.9369433720000071
mp-768476,Li3VS4,-1.287089686874999
mp-975390,RbCa3,0.21772340812500002
mp-619791,La5C2Cl9,-2.3007736884375
mp-30282,La2I5,-1.777881522857142
mp-755071,SnO2,-2.020034801666666
mp-5905,Y2BeO4,-3.6812032614285712
mp-8365,MnB,-0.528182893491377
mp-21500,Yb2InCu2,-0.47007365000000306
mp-3555,LaSiIr,-0.9994050800000011
mp-27413,Mo8P5,-0.5042400169139181
mp-6903,Na2Ca4ZrNbSi4O17F,-3.362388403258619
mp-773359,Li2VCoO4,-2.150772185833333
mp-722860,Na2MgH4(SO4)2,-1.857445581632859
mp-541114,Sr2RhF7,-3.25599896425
mp-631480,IrOs2Br,1.22251666625
mp-676325,NbBi7O13,-1.765678220238097
mp-554542,Mg3B(OF)3,-3.414764612416667
mp-867909,ScCdRh2,-0.6000478612499981
mp-21901,SrIn4Ir,-0.34101049861111205
mp-675118,Y2Th8O19,-4.254853682931033
mp-762266,Li2Cu2F7,-2.222031335757586
mp-772521,Li8TiO6,-2.445641585
mp-961690,VGaNi,0.274683158300222
mp-19452,V2Cd(P2O7)2,-2.60172714707483
mp-773100,La2BiO5,-2.927419057500001
mp-972411,Tb3Yb,0.036302121250002005
mp-4304,SmSnAu,-0.823230969999997
mp-862945,NaPmTe2,-1.313305866875001
mp-4720,Si2Ni6B,-0.46083057916666603
mp-684502,Sn2P3O10,-2.312732458761905
mp-16773,KTb(PO3)4,-2.918663932916004
mp-753848,Li(CuO)3,-1.112466536190476
mp-764741,Li3Fe8(BO3)8,-2.244240837751937
mp-10985,RbCu3S2,-0.615274059583332
mp-571443,SrMgIn3,-0.292186542999998
mp-11525,TmNi,-0.49790659000000304
mp-686086,Tl9SbTe6,-0.43600642375000404
mp-26835,Li3Bi5(PO4)6,-2.443650985733083
mp-632402,LiCaUF8,-3.8159595410605913
mp-22542,Tm3PbC,-0.558029175000005
mp-554615,KEr(PO3)4,-2.9251457596289683
mp-1018942,PrTlCd,-0.43304568555555506
mp-559822,La2TaCl3O4,-3.371451709733334
mp-752895,Li3CuF4,-2.632011330625
mp-674361,LiNbO3,-2.8894612342666672
mp-762292,Li4V5O10,-2.45755789754386
mp-631336,LaMgNb2,0.6505071599999991
mp-775190,Li2V3CuO8,-2.216818156190477
mp-864906,MgSnIr2,-0.331300907499998
mp-18812,NdVO4,-3.17529278125
mp-982448,Pm3Y,0.038133759375
mp-24001,NaZn2P2HO8,-2.354977655136786
mp-27295,Mg14Ge5O24,-2.786944513953489
mp-768094,Na2FePCO7,-2.239140608741789
mp-567271,Np(CuSi)2,-0.257738349583343
mp-20647,Nd2ScSi2,-0.7730081049999961
mp-766664,LiFeSiO4,-2.5030343848809533
mp-23942,KPHNO2,-1.833140528579364
mp-39387,SrLiTa2O6F,-3.409202335272727
mp-30526,Mn4Al19,-0.18574687703148401
mp-975463,RbAcO3,-2.226777475
mp-674297,NaNO3,-1.353750147275862
mp-3248,TbAsO4,-2.844339936527786
mp-753306,YUO4,-3.8799478824999962
mp-156,La,0.019361705000001003
mp-775442,Li4V3Ni3(SnO8)2,-2.05714438547619
mp-765484,MnH6SO6,-1.4799112675307882
mp-557933,SiO2,-3.259402687777778
mp-1013849,Li3Fe2(GeO4)3,-1.8134784629999992
mp-5152,La2SiO5,-3.778476201874999
mp-540292,LiCrPO5,-2.451405901622022
mp-31417,Nd3TaO7,-3.745643342712122
mp-37070,Pr2SmS4,-2.292050788333332
mp-763950,V3O5F,-2.558862749444444
mp-29861,K2Mn3S4,-1.2335747530220291
mp-774714,Li3Sb(PO4)2,-2.522000160663265
mp-561270,SnH4C2NO4F,-1.333720848461537
mp-20911,LaIn5Ir,-0.398887212619047
mp-864922,MgZnAu2,-0.41613972874999605
mp-541612,La4Os6O19,-2.329128395689655
mp-706995,ZnCoH18N6Cl5,-0.7439798391129021
mp-568747,K(NiSe)2,-0.700698132387499
mp-24563,Ga2P3(HO3)3,-2.06951274045168
mp-5737,TbCuS2,-1.60526750890625
mp-556051,Rb2GeO3,-2.076389065416665
mp-34891,Li2Mn15O32,-1.707337821339433
mp-2988,Li2GaRh,-0.487105041041666
mp-34770,Sr(GdSe2)2,-2.179194940178575
mp-8953,YbAsPd,-1.283176505833334
mp-600033,SiO2,-3.258729536111111
mp-22817,TaTe4,-0.585981959799998
mp-981384,ScOs3,0.099033316249999
mp-765230,LiVOF3,-2.9778538405555564
mp-975838,K3Nd,0.541256490874999
mp-780897,Li2Mn2P4H6O17,-2.18936479285807
mp-754779,Li2NbS3,-1.37519156486111
mp-8999,NbNiTe5,-0.637684144761905
mp-541041,NdAg(PO3)4,-2.711514133902115
mp-973738,GeBO3,-1.010670925833333
mp-2053,Nb3Sb,-0.34550683750000005
mp-8062,SiC,-0.30577789250000004
mp-570306,TlGaI4,-0.849844910972226
mp-559663,SrLiNiF6,-2.990113115925926
mp-862702,Sc2AgHg,-0.38885600062500103
mp-974861,Mn2Co2O5,-1.20204872342912
mp-971979,Tm2ZnAg,-0.374587262500003
mp-999441,Nb3Cr,0.28674247749999804
mp-560120,Na2Pd(NO3)4,-1.091131615408349
mp-771387,Li6Mn2C4SO16,-2.131074248909037
mp-19475,LaCo(BO2)5,-2.884990487254901
mp-633099,Sb2Pb2O7,-1.808135013181815
mp-766034,Sr5(IrO3)6,-1.846538159655173
mp-559722,Hg3(NO4)2,-0.7589517222115401
mp-771317,Ti5Sb5O17,-2.598169327098765
mp-9071,Na8TiAs4,-0.6898967597435891
mp-8267,KPS3,-0.957297178878565
mp-510661,Gd(IO3)3,-1.474349951346154
mp-9625,LiMgPO4,-2.946585101496598
mp-707775,K2B5H5O11,-2.293330449851448
mp-555349,La2CO5,-3.277591261458335
mp-865234,TaZnRu2,-0.344226414333334
mp-15706,LuB2C,-0.5605418896875011
mp-764595,Na2V2O5,-2.294211682806514
mp-759786,Na2Ti7O15,-3.328409610878832
mp-16958,LaNi5P3,-0.810871030992064
mp-19763,EuGe3Pt,-0.6486200240000021
mp-561,Nb3Se4,-0.9978607266071431
mp-1009483,NiN,0.9701725316666661
mp-1018020,NiAgSe2,-0.20186144421875302
mp-28921,Tl5Se2Br,-0.676213200169275
mp-4022,Zr2CoSi2,-0.8617908279999981
mp-758265,LiCu2F6,-2.088305655185185
mp-978099,K3Gd(PO4)2,-2.966707809002542
mp-722246,SiH10(O2F3)2,-1.937921590595237
mp-33667,LiDyS2,-2.089092959999999
mp-541448,Rb3(FeS2)2,-1.036669439999998
mp-769511,NaLiV2O6,-2.386376618221264
mp-16596,K3HoSi2O7,-3.081576141160257
mp-643727,HPbBrO,-1.370477384062499
mp-695955,P3H11N4O9,-1.3922542506547622
mp-771977,TmAsO4,-2.858623212916666
mp-603633,SnP4H8N2O13,-1.864922109591836
mp-672341,UF6,-3.479685991071428
mp-7206,TcAgO4,-1.52597048111111
mp-29332,Pt(PbO2)2,-1.2831919528571412
mp-570557,NbCo3,-0.07446270541666601
mp-22902,LiBi,-0.415156415833333
mp-755592,K2TbO3,-2.394832200194443
mp-643385,SrHIO,-2.1186444984375
mp-20582,LaIn,-0.648769407499997
mp-8950,NdAsPd,-1.178907223333335
mp-15442,SmSi3Pt5,-0.887542270370369
mp-1007857,Ga,0.12453846500000001
mp-1148,Th2Pd,-0.519100546666663
mp-541937,Zn(InS2)2,-0.7462561203826491
mp-976948,Ni3H,0.5097134040625
mp-755805,Sc(CuO2)2,-1.982464174285712
mp-764909,Li5Mn3Cr(PO4)4,-2.512404395139006
mp-971941,Zn3Ni,-0.16911967499999903
mp-766175,RbInBP2HO9,-2.519782575257936
mp-38089,Na10Mn4O9,-1.642225616761618
mp-770199,Li2CoSn3(PO4)6,-2.391588839431217
mp-31301,LiSn4Au3,-0.282338886041664
mp-13039,Tm2C(NO)2,-2.526824120714288
mp-4967,MgSO4,-2.396851434166665
mp-39412,SrLaMn2O6,-2.762074547086206
mp-7941,Li6TeO6,-2.132090702051282
mp-772528,MnZnO3,-1.721061604586207
mp-697180,Mg3In,-0.07422344041666401
mp-974432,Re3Sn,0.5538399125000021
mp-773024,LiCa2Nb3O10,-3.146191273802083
mp-769365,ZnSeO4,-1.307295509557291
mp-1175,SrS3,-1.180148172109374
mp-29936,Rb2PdI6,-1.015393154166669
mp-972320,UNiB4,-0.48350386319444505
mp-865014,Mg2Cu,-0.082851244166666
mp-777082,TiNi3Sn2(PO4)6,-2.377536913088624
mp-568,TiSb2,-0.40897059555555404
mp-760402,TaRhO4,-2.387292706222222
mp-628768,In4SnSe4,-0.59968409666666
mp-676684,Sr4Nb2O9,-3.208372448000001
mp-971844,Tm6GaCo2,-0.31004535472222905
mp-22682,In2Pt,-0.6045200566666671
mp-767393,Li15Ti11Nb5O42,-3.056304059817351
mp-31011,Y2Si2Rh,-0.9596104779999991
mp-29483,MgInBr3,-1.474897149833331
mp-1018819,NdTlCd,-0.31572783527777704
mp-770494,LaMgI5,-1.510471286428571
mp-9460,Zn3N2,-0.042922803
mp-1084,ZrB12,-0.225528678076923
mp-555472,Na4Zr2(SiO4)3,-3.116680973834154
mp-775285,Li2CoNi3O8,-1.283873344940476
mp-542724,LaNbO4,-3.558192809166667
mp-705333,LiMo(PO4)2,-2.470748678343254
mp-559493,TiPCl7O,-1.837991591172619
mp-3521,NaBF4,-3.138607858749999
mp-29156,NaTa3N5,-1.191192910519845
mp-972542,SmTlAu2,-0.5651232795833361
mp-999318,NiBi,0.026048007500001
mp-976405,NaEr3,0.320381610862067
mp-1020613,Rb5GaO4,-1.642377376999998
mp-7790,Ti2N,-1.433421929027777
mp-20114,TmMnGe,-0.500960995977013
mp-13744,Rb3GaO3,-1.8299430271428552
mp-568247,TmAu3,-0.7942506437499971
mp-776005,Li4FeBi(TeO6)2,-1.7657390303333331
mp-977364,HoPaOs2,-0.413282853281259
mp-558769,Na3Li4Th6F31,-4.02399438795457
mp-975170,RbHg3,-0.21248978625000803
mp-865125,MgGaRh2,-0.683136453124998
mp-10418,RbSbO2,-1.864373579375
mp-974768,Rb2Mg,0.19157399000000003
mp-540942,KDy2Cl7,-2.500771986624999
mp-755713,Tb2SbO2,-3.028075614666669
mp-975236,RbPtO3,-0.8889363144999991
mp-29417,Na3ScBr6,-1.95806372541379
mp-976126,K3Rh,0.6209916146875011
mp-9573,NaBeAs,-0.37968383295977004
mp-770386,LiMnAlO4,-2.538269037680624
mp-10219,YOF,-4.196428623333334
mp-669347,KCuF3,-2.35644909645
mp-20875,TbInRh,-0.7443161044444391
mp-9437,NbFeSb,-0.402070886666668
mp-669521,Nb3Te4ClO15,-2.185478588876812
mp-773510,TiV2CrO10,-2.269430502380953
mp-973528,K3Si,0.26478334115625
mp-13541,Sr2Mg(BO3)2,-3.184874278484848
mp-7784,SbAsO4,-1.727386795416666
mp-33551,LiFe5O8,-1.638523495952382
mp-560921,NaAlAs2O7,-2.1945148153526652
mp-777477,LiFeF4,-2.774180773055555
mp-558065,In4(P2O7)3,-2.4978299786943152
mp-866696,La3ScBeS7,-2.195395254375
mp-13283,Sm(ErS2)3,-2.380271892999999
mp-5109,Y(NiGe)2,-0.6881894820000011
mp-568771,Sr3(B3Rh4)2,-0.622559889705883
mp-22767,ThGa4Co,-0.47452015499999806
mp-22994,LiIO3,-1.384245133666667
mp-974068,Nd3Th,0.077310561875002
mp-7656,Na5GaO4,-1.805002025939654
mp-644481,ScO,-3.240489735
mp-12710,PrZnPd,-0.674469673888891
mp-721249,Li10Ge(PO6)2,-2.494364972304762
mp-580930,YGe2Ir,-0.7950263756249981
mp-16984,Sr3MgRhO6,-2.638171944545454
mp-975079,MnZn3,-0.103755331120689
mp-772025,TaIn3O7,-2.329587880439392
mp-625812,Sr(H2O3)2,-1.03801721
mp-684768,Sm2O3,-3.412713637000001
mp-560624,Na5Bi(P2O7)2,-2.561572092727832
mp-17344,RbEr2Cu3S5,-1.469203079999999
mp-29459,Rb3Mo2Br9,-1.4475684326785712
mp-752429,ScTlO3,-2.455815971666668
mp-943462,LiFeHSO5,-1.915035090787038
mp-765705,NaV5O8,-2.370952514384236
mp-554605,Rb2SbCl3F2,-2.293246118125
mp-762311,ZnH12N4Cl4O3,-0.8890957903124991
mp-752724,Ho2TiO5,-3.808684084791666
mp-554159,Li2BeSiO4,-2.964120770208333
mp-13470,Zr3Al2,-0.4503824825
mp-2648,NbS2,-1.329370606666663
mp-23526,KClO4,-1.083206086625002
mp-758840,KB6P(H2O7)2,-2.470841539015109
mp-27583,Sr2P6O17,-2.8504518415142712
mp-19376,TiMnO3,-2.918284943752874
mp-569427,K4Sn(TeSe)2,-1.13684498855787
mp-965,TbB2,-0.608675188333334
mp-556125,Na2BHO3,-2.183539744025041
mp-774810,RbPHO3F,-2.492374763341837
mp-776726,LiV2F7,-3.084871719833334
mp-16644,PrMgPt,-0.865556565555547
mp-580155,U(Cr3P2)2,-0.47692993835497804
mp-977382,Ta2VRu,-0.313998332416666
mp-16819,ZnTeO3,-1.6326734050833331
mp-6880,Sb2OsC6(OF2)6,-1.926788663333333
mp-866094,HfZnCu2,-0.196791697499998
mp-697806,Ni3(PO4)4,-1.680746448850932
mp-983365,K3Hg,-0.021142629687499002
mp-28730,In7Cl9,-1.022579103125
mp-27741,TeAuI,-0.405502547222223
mp-567478,MnSbSe2Br,-0.748830724523707
mp-19965,K4BaU3O12,-3.206734367949998
mp-17323,TbCu(BO2)5,-2.80553174632353
mp-756721,NaBi5O8,-1.632165435098519
mp-763248,V4FeO12,-2.067060245882353
mp-554704,TiPHO5,-2.762470305840774
mp-767945,Mg7Co17O32,-1.693552856696429
mp-755428,Rb3ClO,-1.594203059500002
mp-29910,Sr4I6O,-2.185332644090906
mp-542115,Hg3Se3O10,-1.017421652158204
mp-571216,Sr3(AlGe2)2,-0.500196733333332
mp-30668,Ta5Ga3,-0.23880907662500303
mp-776641,Na5CoO4,-1.477254343189655
mp-30840,Ti2Pd3,-0.6144632066666671
mp-568029,Mg15Si2Ir5,-0.39742051613636303
mp-561424,KAlF4,-3.648254212874994
mp-975050,Rb3Co,0.857264924374999
mp-1001837,MoP,0.198260446011907
mp-557853,TiH8C4NO10,-1.468012877986111
mp-972751,Si3Ge,0.580802638749999
mp-30292,Nd4Se3N2,-2.03018731329861
mp-10898,ScAlNi2,-0.627430021249998
mp-769045,HoGaO3,-3.1683676988333342
mp-621852,La2Ge5Ru3,-0.6590012285000011
mp-2093,Pr3Al,-0.18774121874999802
mp-209,Er2Se3,-2.173853193270832
mp-19172,KV3O8,-2.361849654770832
mp-767572,Li2MnF5,-2.934023709324713
mp-581736,Eu(SiRu)2,-0.8146155849999981
mp-19189,K2Co(SeO3)2,-1.607684705380681
mp-26390,Nb2(PO4)3,-2.844751375966387
mp-31452,ZrNiBi,-0.307924750000001
mp-20146,Zr2Ni2Sn,-0.568962743999999
mp-780440,Li8MnFe7(BO3)8,-2.350852942665229
mp-867287,LiInAu2,-0.45810238666666603
mp-865232,TlPd2Au,-0.18658769749999402
mp-766023,Li2Cu2Si4O11,-2.586342292982456
mp-560936,Rb2NaCrF6,-3.116374354637931
mp-974038,Ni2W4C,-0.056308182857139004
mp-769073,Na2LiTi3Al(PO4)6,-2.9860913179445703
mp-559068,Na2Pd(SeO4)2,-1.399811515957393
mp-11974,TmSnRh,-0.903144980555552
mp-560098,SbO2,-1.833650828333323
mp-765721,Na4V3O8,-2.262387023701149
mp-781613,Li4Fe3Co5O16,-1.458943593690475
mp-17650,KGaS2,-1.292719006499997
mp-632692,LiFe4(PO4)4,-2.34921354127619
mp-769460,Li9Mn12Ni3O32,-1.961938117235221
mp-560468,Pr3Si2S8Br,-1.814640082857142
mp-775335,Li2Cr3FeO8,-2.109076540119047
mp-22758,U(SiIr)2,-0.8008096099999981
mp-3731,LiNbO3,-2.899517651666666
mp-541569,Sr2Li3TaN4,-1.058175710483333
mp-865808,LiNd2Ir,-0.47049519608333
mp-631546,TlCoBi,0.8453412447777751
mp-17987,Tb11O20,-3.4434415894623642
mp-1649,Fe3Pt,-0.072918827499998
mp-2324,PrCd2,-0.395212403888886
mp-673023,LiBi(PO3)4,-2.533631231772487
mp-752888,Li2CuSiO4,-2.314023163958333
mp-583553,Mo6PbCl14,-1.125559354523811
mp-756912,LiZnBO3,-2.376699558333333
mp-604459,Li2B4H4O9,-2.3158437578070172
mp-12678,TaMn2,-0.131316660432953
mp-557900,SbCSCl2F9,-1.991401288214285
mp-560297,LiTaSiO5,-3.194587247270834
mp-510099,In3Au10,-0.139674372692306
mp-31739,Li2CrP4O13,-2.546215657011905
mp-16184,Rb2B2Se7,-0.8198785858854201
mp-766881,H7SIO10,-1.2049967805921051
mp-973920,Lu2Ta2O5,-2.686337848111111
mp-13074,LuNiPb,-0.406411827777769
mp-569813,In5AgTe8,-0.432294482500001
mp-568336,Lu2Si5Ir3,-0.905438718833336
mp-866062,HfSiRu2,-0.87005298375
mp-971891,Zn2PdAu,-0.388126027499999
mp-552056,PbCClO2,-1.58720106
mp-684503,LiSn(PO3)3,-2.500686045875849
mp-1006132,Hf3Pb,-0.039817422500007006
mp-753649,LiZrPCO7,-2.7538005566341983
mp-769036,Li8Nb2S9,-1.3705181527192971
mp-1019108,SmCoSi,-0.6672801233333401
mp-607990,Hf2Co3Si4,-0.7334071536111091
mp-3503,Li6WN4,-0.952176872727273
mp-8177,HgF2,-1.5725115458333332
mp-23508,Rb2CuCl4,-1.694718441428571
mp-634434,NaHCN2,-0.41807740302586105
mp-772417,Li4V3Fe5O16,-2.068352770833333
mp-643,ThO2,-4.36779017333333
mp-769533,LiMn(PO3)4,-2.518501732213099
mp-541754,TiCu2Te3,-0.488242698611112
mp-600154,K2CuH8(CO3)4,-1.484509008685185
mp-20405,V2Ga5,-0.26941850142857104
mp-754184,ErAlO3,-3.695549607999999
mp-37501,In10Sb9Te,-0.10163285516666501
mp-758070,LiCu2PO4,-1.832488992247023
mp-760690,Li8TeO6,-1.969396036222222
mp-1719,PuN,-1.6748510637499971
mp-631533,PPbW,1.884796629841261
mp-628951,V2P2O9,-2.576943749175824
mp-12846,YbGaGe,-0.5852841283333341
mp-635322,MnH2SO4,-1.6274676419288792
mp-764559,LiFe2(BO3)2,-2.264249962651514
mp-756432,Li2Ti(TeO4)3,-1.915936893333333
mp-559702,Pr2Ta2Cl2O7,-3.427969009461539
mp-558226,H2O,-1.268944512777777
mp-763194,LiMn2(BO3)2,-2.417577902048066
mp-569788,LiZnGe,-0.24967411166666603
mp-19867,NpAs2,-0.9375004945833321
mp-865793,LiSc2Rh,-0.5495435108333321
mp-558831,KNdPdO3,-2.2765922624583332
mp-23803,GaHO2,-1.884207665937499
mp-1878,HfBe13,-0.17547948321428603
mp-553977,K4NpS2ClO10,-2.475344931819443
mp-623087,Re3(TeBr)7,-0.6848991873039201
mp-757325,Li3Ti(PO4)2,-2.8083045501870743
mp-769287,Li2TiS2O,-2.010395815416666
mp-999130,TbNi,-0.43574796083333206
mp-770209,Li3Ti(BO3)2,-2.728034570972223
mp-680677,Sn3Ru2,-0.1499195775
mp-977535,ErAlAg2,-0.33059408583333105
mp-18901,VAgHgO4,-1.405343847738096
mp-1018160,PmN,-1.727228733125002
mp-770703,LiSbWO6,-2.069703236203703
mp-767304,LiMn2F6,-2.924684867132822
mp-569748,ThFe2SiC,-0.48362853399999806
mp-14216,Ga8(Pb3O7)3,-1.910077196315788
mp-760819,LiAg2F6,-1.621900744351855
mp-558042,Sm3CuSnS7,-1.725180789375
mp-5488,LiInO2,-2.061352058749999
mp-24092,GdH2,-0.738397805833332
mp-862898,PmCdPd2,-0.6538971368749931
mp-27484,Tl2O,-0.8140924155555621
mp-558198,Na2Cd(SO4)2,-2.032487770981431
mp-17894,Rb3Sm(PS4)2,-1.354177886198979
mp-771495,Na6Co2As(CO4)4,-1.827968527268133
mp-4364,NbGaCo2,-0.31061607437499905
mp-862937,PmMgZn2,-0.344056933125
mp-979939,Yb3W,0.442689776249991
mp-2580,NbB,-0.8092043887500001
mp-865796,LuCdRh2,-0.6920993941666641
mp-505121,Na2Hg3S4,-0.698614263639848
mp-769604,K2MnPCO7,-2.322483721839491
mp-774749,RbNa3Li12Ti4O16,-2.643367490971423
mp-24354,H7Se2NO6,-1.060896813339844
mp-18972,Sr2VO4,-2.9606349314285723
mp-19310,Na3Co(NO2)6,-1.048845851551724
mp-567653,Ti3Ni4,-0.41299813285714204
mp-413,UP2,-0.9250981203174621
mp-14817,PrP5O14,-2.8222259851190463
mp-780243,Li5Ti2Cu3O10,-2.212030808166667
mp-762307,Y7HoO12,-3.962195683250002
mp-16929,Pr3Si6N11,-1.475529970499999
mp-1017509,MgNiH2,-0.26005051437500004
mp-11651,Yb3SnO,-1.545781028750002
mp-7283,LaB4,-0.6274805885000001
mp-759926,Li2Ti(BO3)2,-2.899257620075757
mp-621092,Tl2Pt(CN)4,0.038370312424244005
mp-557016,TaP4S6Cl5,-0.9902090553690461
mp-698690,NaCaGaSi2O7,-2.36128471450431
mp-764512,Li5Fe8(BO3)8,-2.274294459555555
mp-11738,Na3PS3O,-1.4930934389100972
mp-17666,Nd3OsO7,-3.091886021136346
mp-759235,Li2CuF5,-2.410240458520833
mp-27442,RbCrI3,-1.000396931
mp-505001,Rb3ZnBr5,-1.805250271388888
mp-976793,LiEr2Ga,-0.37410183833333405
mp-773192,Gd2(WO4)3,-2.720304992647057
mp-976847,Ni3Sb,-0.0822096625
mp-24741,ScH3NCl3,-1.5716877460937502
mp-755026,La2Pt2O7,-2.371595123181819
mp-972640,SmDyZn2,-0.33158715916666404
mp-778729,Mn3(OF2)2,-2.5370763770881233
mp-26675,LiSb(PO3)4,-2.48752887260582
mp-556047,K2OsCBr5O,-1.040416694449999
mp-19284,NiAgO2,-0.799589819166665
mp-530953,Ho2TiO5,-3.769406522291666
mp-867932,Sm2MgGe2,-0.770147749
mp-570791,SiC,-0.30582562723684303
mp-1565,ZrO2,-3.757945188333334
mp-774245,Li5Mn5(NiO6)2,-1.9750290031800772
mp-754211,SrLa2O4,-3.598485091428571
mp-540439,Mn(PO3)3,-2.467611273989201
mp-554819,MgP4(Cl5O3)2,-1.929050311598639
mp-30439,Ta6Be15Cu8,-0.199455715827586
mp-3579,UGeSe,-0.960272645781251
mp-758829,Nb2OF8,-3.313627437045454
mp-553907,Rb3AgO2,-1.127836472881943
mp-767636,LiMn2O3F,-2.270349479170772
mp-17037,Rb2Ti(SiO3)3,-3.1350080442222232
mp-770686,Li3MnAl2O6,-2.702623713994253
mp-634751,YbH2,-0.799731970833332
mp-18469,SrMgP2O7,-3.1184218451623362
mp-777151,LiFe2F7,-2.681000293333333
mp-11606,KHo2CuS4,-1.902475528406248
mp-11547,YTlPd,-0.726733002222223
mp-571363,YbSbPd,-1.226686474999998
mp-758731,Li3Bi(PO4)2,-2.5210936278061222
mp-557130,Zn2TeCl2O3,-1.623250546927083
mp-861595,Pr2CdCu2,-0.22915599866666603
mp-769636,Li2Cu2(SO4)3,-1.771559214298244
mp-9425,Sr2GaCuSO3,-2.29533932625
mp-554160,K2CuP2O7,-2.4040318565654752
mp-32927,Tb2O3,-3.5018293296666663
mp-767679,Li8TiMn3O12,-2.292883116616378
mp-505700,KInSe2,-1.13291374277604
mp-504946,Nb2P4O15,-2.766302109455783
mp-998762,MnTlF3,-2.595991289252874
mp-758259,Li4Ti3Cu3(TeO8)2,-2.175919673452381
mp-28126,K2GeTe4,-0.784129733738094
mp-978279,Mg3Cu,0.010343071249999001
mp-865867,Li2YTl,-0.32408084333333403
mp-23355,PAuCl4,-0.661167174662698
mp-556442,Tc2O5F4,-2.06860917409091
mp-761568,Rb2CoO3,-1.451793599166666
mp-621964,K2RbBiSe3,-1.154518416290178
mp-769624,Li3Co3CuO8,-1.474400783999999
mp-570816,Ho5Ga3,-0.46380489843749506
mp-568914,K2WCl6,-1.5350239002777761
mp-530850,Ta2CuO6,-2.774847067601851
mp-11718,RbF,-2.87335177125
mp-20335,MnNbP,-0.8121053025246301
mp-13853,P3Ir,-0.733284737232143
mp-773197,Li2Cr4O13,-1.694630443771929
mp-7124,TbSiPt,-1.291662352499997
mp-2964,NaNO2,-1.226192106594827
mp-972238,Ti2VIr,-0.5512849641666651
mp-573376,Lu2CCl2,-1.8175836356666681
mp-755340,Tb2SeO2,-3.4834872031354163
mp-753783,Li5InO4,-2.013201669333332
mp-3583,U2AsN2,-1.628152047999998
mp-864661,ZnCuPd2,-0.40425254999999904