material_id,formula,formation_energy
mp-1384,LaIr5,-0.304425874166666
mp-778824,Li4Cr(WO4)3,-2.298027052666666
mp-4207,USb2Pd,-0.6399275737499931
mp-28488,CuPtF6,-1.613711773125
mp-559764,Nd3Si2ClO8,-3.601466856964285
mp-756638,NbRhO4,-2.212486449166667
mp-9539,EuMgF4,-3.886103205833334
mp-979919,TaO3,-1.8058272893333331
mp-559771,Pr6O11,-3.236619709558822
mp-865866,LiZrPt2,-0.9626634954166701
mp-565679,Hg4Se4O9,-0.95322248966912
mp-15438,ZnP4O11,-2.479171899441964
mp-11106,PaAs2,-1.065081468333332
mp-556433,Rb5Tl3O,-0.454964949722224
mp-27164,FeP4,-0.364380441714284
mp-13718,NaCd4(PO4)3,-2.289490023515393
mp-20308,TmSiRu,-0.8385795433333361
mp-21496,LiLa4CuO8,-3.167302960238095
mp-997095,NiAuO2,-0.8277594062500001
mp-13676,TlPO4,-2.058387272162699
mp-557683,Zn3(BO3)2,-2.2800949125757572
mp-27396,NiCl2,-0.9834993083333331
mp-769643,Y(Bi3O5)4,-1.746502785151516
mp-755790,HfPbO3,-2.985043061999999
mp-29369,Sb7F29,-2.644929547430555
mp-30584,HoCu2,-0.27910865833333504
mp-5193,SrZrS3,-2.077791916499998
mp-560456,Hg2Te2O7,-1.172470605189394
mp-22989,NaIO3,-1.318583879275863
mp-18639,La2Si2O7,-3.664285678863635
mp-780786,Na6Fe2P(CO4)4,-2.019794996824783
mp-867160,LiCd2Au,-0.36756647666666303
mp-764013,Li5V3CrO8,-2.292208458921568
mp-767088,Li3Sb11S18,-0.685180447343749
mp-1005719,Sm3Np,0.36970158156249505
mp-696969,Sr(H2N)2,-0.6499108003571421
mp-31052,LaBPt2,-1.024922696874999
mp-541558,Sc4Ge6Rh7,-0.9233692517647081
mp-989595,CsRb2InF6,-2.916283768132184
mp-743761,LiFe3SiPO8,-2.265463138069727
mp-29585,K4CdAs2,-0.403009840571427
mp-10895,Mn2AlV,-0.317624613965518
mp-541954,Fe2P2H4O9,-1.991200773193277
mp-555740,SiO2,-3.250526616666667
mp-29440,CuMo3I7,-0.5983315423863641
mp-781055,Fe3OF5,-2.340981068333333
mp-690543,Mn2NiO4,-1.7463004494088672
mp-29979,Nb3B3C,-0.7018207807967001
mp-761869,Sr3Li3La5O12,-3.273532843115943
mp-865251,TmThTc2,-0.141338013051466
mp-16777,NaAlP2O7,-2.899156918924092
mp-763198,Li2VO2F,-2.618767253611111
mp-567705,TiAl2,-0.47273808805555406
mp-766942,Li2MnF5,-2.940785524012213
mp-972180,YbMgIn2,-0.32037228249999905
mp-22618,Y(CuO2)2,-2.061175068571454
mp-16863,Rb3PS4,-1.245215322455356
mp-7591,GeAs,0.045149222083335
mp-754999,SrLaCl5,-2.646122295357137
mp-625788,La(HO)3,-2.234019956964286
mp-861983,Ti2MnFe,-0.33844832864942703
mp-867626,Tl3Os3O10,-1.3680856214062511
mp-569089,Dy(PRu)2,-1.034877172190476
mp-982597,Pa3W,0.30163773249999704
mp-11742,CsNdTe2,-1.6802971043750001
mp-5620,TmB2Ru3,-0.484045333055558
mp-1008911,LiMnAs,-0.287034042921456
mp-14457,Na3Li3Ti2F12,-3.32034199441523
mp-766202,Li7Ti3(SiO6)2,-2.856422413472222
mp-721312,Na2H2CO4,-1.8040592547509582
mp-11121,CsTbCdSe3,-1.5847414563921811
mp-776894,NaTiO2,-2.7088778324281613
mp-781681,LiMn(PO3)4,-2.495587675824209
mp-37167,U12Rh4Se31,-1.338264491971408
mp-975288,RbNpO3,-3.077545228250001
mp-15179,Pr2S3,-2.365342227854165
mp-628305,K2MnSnSe4,-1.018125356788253
mp-40374,Na6TiMn(SiO3)6,-2.8744170074856332
mp-7638,LiTa3O8,-3.251229771277778
mp-27194,SnI2,-0.7447498127777771
mp-775811,LiVFeO4,-2.162775120119047
mp-19038,SrV2O6,-2.670981360555556
mp-763317,LiVGeO5,-2.245416934166666
mp-773628,NaV2O4,-2.36449380591133
mp-973069,HoLuTl2,-0.282972897083333
mp-1827,SrGa4,-0.47237165200000103
mp-865508,U2Ni12As7,-0.39508024059523705
mp-754300,HoBiO3,-2.784963121999999
mp-560119,TbCl2F,-3.19292187375
mp-756299,Li4HfO4,-2.760008337592592
mp-752695,SrCa2I6,-1.8711302877777771
mp-13415,Ta3B2,-0.722262897399997
mp-756448,LaMgI5,-1.587102582857145
mp-1016851,HgRuO3,-0.8271473795000011
mp-768159,LiSnPCO7,-2.25560782254329
mp-17704,Tm2SiO5,-3.8274684203125022
mp-867343,Li3Cd,-0.17537563749999902
mp-28716,Na2CrCl4,-1.667486751428574
mp-561256,Ba2TiOF6,-3.988466961833334
mp-556878,BiPPbO5,-2.225278606205357
mp-779522,Ho2P4O13,-3.133953209398497
mp-569405,B3H5,-0.074125438276517
mp-549158,InCuO2,-1.482666360416665
mp-985443,Ag3Hg,0.031824621874999
mp-604245,BeH8(NF2)2,-1.555364782166667
mp-753183,CaH4SO6,-1.938727682291666
mp-23947,Cs3MgH5,-0.28725027474616804
mp-569380,BaCeI4,-1.7938816400000022
mp-23505,K2TeBr6,-1.36985561124074
mp-567584,Hf2Te,-0.562713511666672
mp-6135,Ba2PrIrO6,-2.67204645016668
mp-601867,Ba3(SnP2)2,-0.763914564285714
mp-35327,Al(CN)3,-0.13521286428571402
mp-983585,Al3Zn,0.036298491249999
mp-13545,BaIrF6,-2.771339213750001
mp-637206,AlBiSeCl4,-1.581969395691965
mp-754846,Ce2Nd2O7,-3.812863290454544
mp-560404,InHSeO4,-1.5300916307514871
mp-626014,H5IO6,-0.9553925026041661
mp-642458,CeIn4Pd,-0.43769420694444205
mp-645301,K2CoP2WO10,-2.432804767892857
mp-9006,Ho2CF2,-2.6017212429999983
mp-12543,Dy3Pd2,-0.761640371999999
mp-977538,ErZnRh2,-0.6963999724999981
mp-542782,H8C3(NO)3,-0.7271051020588231
mp-17770,CsPr(PO3)4,-2.920340307771848
mp-11454,Hf2Pd,-0.531846506666667
mp-557090,Bi2Au5F21,-1.7513867525000002
mp-1006352,Er2Co3Ge5,-0.5651152660000001
mp-568137,Cs3Mg2Cl7,-2.280204703247127
mp-29828,K2Cu2Te5,-0.640836125314814
mp-23262,Bi2O3,-1.641727215000003
mp-19956,Ba2InO3F,-2.866102289523809
mp-10969,CdCN2,-0.027482624374998002
mp-600186,Cs2MnBr4,-1.727800930320198
mp-558362,CaMgGeO4,-2.867154420714285
mp-23493,Ce(IO3)4,-1.336918337941175
mp-695316,Ca2AlH10BrO8,-1.915285999886364
mp-7349,Ba(BRh)2,-0.46725112366666605
mp-774,CaNi5,-0.11096844999999801
mp-37263,Ca(NdTe2)2,-1.755312290357145
mp-6571,BaCuAs2O7,-1.9701728240909082
mp-996960,AgNO2,-0.49782944291666603
mp-1018665,CeSe2,-1.916278436562496
mp-6704,BaNd2CuO5,-2.965151688888888
mp-12241,Ca11Sb10,-1.03713046642857
mp-766336,Ba6Ca11I34,-1.8551958347058821
mp-558466,AsS(BrF2)3,-1.746848168863636
mp-17213,Cs4SnO4,-1.744003894568965
mp-985439,BaPAu,-0.875082199880953
mp-27556,CsNbO3,-2.832048803681034
mp-776023,CdSiO3,-2.508809583
mp-989608,Cs2NaAsCl6,-1.821436938818965
mp-28102,Ba3Te4O11,-2.235506496759258
mp-571262,CaRh2,-0.43747289666666705
mp-761540,Co3SbO8,-1.251475306666667
mp-998430,CsInI3,-1.153630304764365
mp-6929,Ca2As2O7,-2.509705237272775
mp-760507,AsRhO4,-1.384798562916665
mp-21011,Ce4As3,-1.485694948214286
mp-555462,Al(HO)3,-2.022449964821429
mp-560717,Ag2CO3,-1.062745886666667
mp-30443,Be17Ru3,-0.277945204875
mp-773079,AlZnH16N(OF)6,-1.7008288067741941
mp-8977,Ca2PN3,-1.358631708204366
mp-12524,Al2W,-0.058215970888887004
mp-721300,Ca2B5H2ClO10,-2.769192540583333
mp-3541,CeNiGe2,-0.725137949999998
mp-760411,Bi2CO5,-1.770684691250002
mp-3715,CoGeTe,-0.137953714999999
mp-1008394,Cl2,6.139999999987822e-06
mp-755389,CaEuO2,-3.181973046250001
mp-29988,CsPd2Cl5,-1.017405635000001
mp-766328,Ag7Sb9O25,-1.435631241382114
mp-20378,CaInAu,-0.7679717808333301
mp-2667,CsAu,-0.360558844999999
mp-13956,Ag2PSe3,-0.16940802690228102
mp-689943,CoPO4,-2.064404396190477
mp-34459,Ba(NdS2)2,-2.323362410714284
mp-556986,Er2B2Cl2O5,-3.272382053939393
mp-752706,CeZr11O24,-3.806580555000002
mp-542772,CsAgCl2,-1.393852904999999
mp-1013712,Ba3SbP,-0.30285898092857
mp-31140,BaBiAu,-0.277758661666667
mp-676306,Dy7(CuTe4)3,-1.336061511590907
mp-18919,CoPdO2,-0.81094781
mp-10302,Ba2ScIrO6,-2.7803704155
mp-768149,DyInO3,-2.9952347806666673
mp-625548,Cd(HO)2,-1.312371629499998
mp-850935,CoOF,-1.429180599583333
mp-601322,Ba6Ge5N2,-0.644999388846154
mp-3501,Er(Fe2Ge)2,-0.29589788571428505
mp-888,CaAs,-1.274510102916667
mp-753803,Cs2CaO2,-1.937322568862069
mp-542138,Ca3Si2Ni3,-0.5080494668749991
mp-753318,DyBO3,-3.464002388166665
mp-505034,Cs2MnS2,-1.319898979021553
mp-569385,DyAl2Ni,-0.634236020416664
mp-30454,ErBiPt,-1.166693212777782
mp-1006146,Eu(MgBi)2,-0.5371447850000021
mp-622620,ErNiSn,-0.6682833075000041
mp-19446,CaMn(SiO3)2,-3.112735602793104
mp-31298,ErSnRh,-0.905734998333331
mp-29513,CsXeF7,-1.398194127739465
mp-5160,AgBF5,-2.276470174642857
mp-773513,Er2(WO4)3,-2.743975943823528
mp-505400,BaZr2F10,-4.093492791923077
mp-695278,Ba3La9Mg7Nb5O36,-3.371627847333334
mp-17998,Ca(RhO2)2,-1.792791924285709
mp-11055,CsSn,-0.40618286687499905
mp-3733,BeTl2F4,-2.703259285595238
mp-698611,Bi28Mo2O47,-1.658143013441559
mp-554905,CaZnSi3O8,-3.110942861923076
mp-568448,Cs2AgAuCl6,-1.393409239097701
mp-11649,Ca3SiO,-1.597976148499999
mp-13738,CsCd(PO3)3,-2.542729353291697
mp-448,CoN,0.10286146062500001
mp-22286,Ag5(PbO3)2,-0.8022593106410231
mp-558358,Ca(B3O5)2,-2.970921704558823
mp-7181,CsSr2Ta3O10,-3.353239764478449
mp-19165,BaFe(Si2O5)2,-3.102870680937501
mp-11692,Ba3(SiAs2)2,-0.8022187861111091
mp-541131,Ce2Sn5,-0.555617178571425
mp-27407,Ca12Be17O29,-3.180722960862069
mp-559939,Ba(PO3)2,-2.980959077976188
mp-775990,Fe3Ni2Sn(PO4)6,-2.261307348968254
mp-867826,DyMgHg2,-0.444099090416665
mp-984697,EuLu2O4,-3.8180099879761933
mp-580631,Cs2KTbCl6,-2.514091067322701
mp-1687,BaPd2,-0.5777905816666651
mp-2873,Ce(CrB3)2,-0.5803184449999981
mp-3079,CaTa4O11,-3.426525166208333
mp-19834,CeInCu2,-0.28605080999999505
mp-705854,CaP3H10NO12,-1.890977069960317
mp-775276,Co3(SeO3)4,-1.1266276565460531
mp-606703,Ce4(GeS4)3,-1.5284702542105242
mp-8680,Ce(BIr)2,-0.7168388816666461
mp-17009,Ba3Te2O9,-2.3881671898809542
mp-18216,BaCa2(SiO3)3,-3.427818641
mp-753957,Ce4ThO8,-3.849523806923076
mp-19188,Ba3Mn2O8,-2.427450099297096
mp-9956,AlCr2C,-0.17222914625000002
mp-28274,Ba3In2F12,-3.569621799313725
mp-626225,Ca(H8O5)2,-1.3510201468518521
mp-554116,BaPb2BrF5,-2.943708106111111
mp-6076,Ca4LaB3O10,-3.379169608472222
mp-769061,Bi4(BO4)3,-1.642357837236843
mp-1016850,BaRhO3,-1.914429825
mp-6499,BaLiBO3,-2.958859195833334
mp-560833,B3Pb6ClO10,-2.058955678000004
mp-6109,CaTiSiO5,-3.476201650416667
mp-556601,BiBPbO4,-2.094411144166665
mp-561170,Ba3ZrRu2O9,-2.678928534000001
mp-1006390,Ce4Si3Rh4,-0.9120877104545441
mp-34210,Al2ZnO4,-2.893775984285713
mp-504613,Ce3(Si4Ni)2,-0.5861861146153841
mp-865167,Ca2CdPb,-0.49253916749999804
mp-626378,As3HO6,-1.575999330624999
mp-761512,Co3TeO8,-1.009812917222222
mp-775485,Bi3PO7,-2.080539872694806
mp-8921,Cd4P6SN12,-0.5997514267546581
mp-19456,AlV2O4,-2.7117889364285723
mp-11613,Ba2CuSi2O7,-2.9573345916666662
mp-642844,BaH5BrO3,-1.692264442125
mp-693753,BaNa5Ca7P6(O8F)3,-3.20575406412508
mp-1018721,HfO2,-3.968927069166663
mp-765729,Co2O3F,-1.271210342222222
mp-757587,Dy5Bi11O24,-2.342733042083334
mp-31498,BaPt,-0.7489619924999991
mp-770210,CaY2O4,-3.6969840839285713
mp-695214,Ba9La3Mg5Nb7O36,-3.2874515795
mp-7841,Ba(GaSe2)2,-1.36306374919643
mp-17470,Ba3(SnAs2)2,-0.816251921666667
mp-673151,Cu4(PO4)3,-1.846505159417292
mp-560794,BaNbTePO8,-2.742984132088293
mp-744001,Fe2H13C6NCl2O11,-1.109047792750001
mp-558804,CsGeB3O7,-2.646249304346264
mp-567769,Ca(SiPd)2,-0.815204341999998
mp-698695,CaFe2Sb2(PO4)6,-2.494762093081633
mp-723109,BeH14(I2O9)2,-1.18856089804054
mp-650619,Cs3Bi7Se12,-0.7164949965340951
mp-773980,Bi3(TeCl5)2,-0.8642344636666731
mp-554737,CsAu2F7,-1.6005589525000001
mp-567771,Ba(Si3N4)2,-1.313510195333333
mp-556837,AgAs(S8F3)2,-1.08640704392361
mp-4071,Er2(NiB2)3,-0.5865435013636341
mp-1009238,Hf2Tl,-0.030792373333336003
mp-2863,CeCd3,-0.322184762499997
mp-19796,Ba2Nb5O9,-2.8760714015625
mp-755376,Er2TeO6,-3.031340454444445
mp-11841,CeAg,-0.06319438083333001
mp-20965,GdCd2,-0.36718781333333
mp-4289,Er2Si3Rh,-0.9263301324999981
mp-1018679,DyTe2,-1.333750290000002
mp-13497,Er2Mg,-0.017718654999995
mp-28281,H4I3N,-0.5370794171875001
mp-694892,CaLa3Mn4O12,-2.8876109585862073
mp-27456,BaBr2,-2.5807169366666702
mp-556890,BaNaCr2F9,-3.344845697413793
mp-540169,Co3(PO4)4,-1.875409530372671
mp-762863,Fe3OF5,-2.3837676783333333
mp-2719,DyB4,-0.6685480794999991
mp-579560,Cs3Sb2Br9,-1.542848295997538
mp-542200,CdAg4Ge2S7,-0.5322799706547601
mp-984776,BeIn3,0.46112650125000104
mp-570325,AuSe,-0.136406840781248
mp-780146,Fe3(OF2)2,-1.6162446250000002
mp-561455,Ba8Sb6S17,-1.528057044758063
mp-8880,AlP,-0.732814428988096
mp-675822,Dy14(PbS8)3,-2.084888965691052
mp-989527,Cs2NaNF6,-1.797923644568965
mp-1018087,CeAu,-0.6405005124999991
mp-16164,Dy3Si3O10F,-3.718324769999999
mp-775262,Fe5O3F7,-2.220489659333333
mp-764745,Fe4OF7,-2.415565524583332
mp-4840,GaCuSe2,-0.5736508945312491
mp-20947,CaRuO3,-2.226688614499999
mp-18065,BaCaAlF7,-4.1013565515
mp-753673,BiOF,-2.132821128333335
mp-604273,Cu2GeP2(H5O7)2,-1.64205490591954
mp-715438,Fe3O4,-1.534863793571429
mp-542569,AlRu,-0.728409132500001
mp-3829,CdSnAs2,-0.1169992175
mp-996978,CuAuO2,-0.6980129299999991
mp-9789,CaPS3,-1.236962133282737
mp-756436,FeO,-1.3658911025
mp-29911,Ba3Sb2O,-1.6753821912500002
mp-773667,Ge2N2O,-0.7301131505
mp-997035,CuO2F,-0.8763411025000001
mp-20918,ErTiSi,-0.7369731900000001
mp-260,CrB,-0.40066855625000003
mp-29206,BaMnSb2,-0.548804078232758
mp-19909,Dy(CrSi)2,-0.347251047999998
mp-555528,Ca2Th(Si2O5)4,-3.431682531935484
mp-626564,Ca(H8O5)2,-1.363462576851852
mp-1018068,CrFe2Si,-0.23806202
mp-754823,ErTlO2,-2.7413953683333343
mp-621930,Cs2SrN12,-0.172585386333332
mp-779689,H3N,-0.3269665875
mp-675786,Cu3(BiI4)4,-0.606958952608696
mp-752798,CeTh2O6,-4.215373725555555
mp-24452,CaP2H6O7,-1.9416340857366061
mp-4875,GdTaO4,-3.693003387888868
mp-861883,Ac2CuIr,-0.342298746250001
mp-29558,Bi3ClO4,-1.664051822500002
mp-776172,AlCuO3,-2.055902871
mp-1018100,AlSb,-0.24409026249999802
mp-833,CaPd2,-0.7146243599999991
mp-8566,Ag,0.0
mp-673,HoNi2,-0.459329848333332
mp-28252,Ba5(GaS4)2,-1.931844314166665
mp-693340,Al4Zn4P8H13N3O32,-2.226994237474889
mp-505546,GdMnB4,-0.6324393144971261
mp-773164,Gd2V2O7,-3.110372110454546
mp-30119,Cs3AsO4,-2.000332986120689
mp-759883,BiOF,-2.203779964999998
mp-555980,Ba2Zn3(PO3)10,-2.687640255031746
mp-570194,Ca(BH4)2,-0.466212786893939
mp-975064,HoReB4,-0.652611437083334
mp-571184,CuMo3Br7,-0.9621440485227271
mp-989594,Cs2NaGaH6,-0.21012295156896602
mp-675640,Hg2AsF6,-1.746042038055533
mp-555646,BaH4(CO3)2,-1.780843226153846
mp-27917,Ca3SiO5,-3.377056406481481
mp-1000,BaTe,-2.003574658333334
mp-562569,CsPPbS4,-0.9776288366854371
mp-620325,CoCu2(BO3)2,-1.813588461893939
mp-4877,CsNa2Si17,0.020098730879309003
mp-542298,Ag2F5,-1.229926874642856
mp-505537,Al3(Co10B3)2,-0.23253419568965603
mp-778102,BaYF5,-4.303686529285715
mp-7786,CsCu3S2,-0.6124818376041661
mp-624,B6As,-0.20918894107142802
mp-629082,Ba3MoN4,-1.013031401458334
mp-752677,Ba2YBr7,-2.382641
mp-676643,Ba2NF,-1.86377530125
mp-13381,CeZnPd,-0.6525053522222201
mp-7692,Al(CrB)2,-0.38110427100000005
mp-759766,Bi25BO39,-1.59501055898718
mp-555569,Cr2S3,-0.9933775114999971
mp-567722,Ca7NbSi2N9,-1.346796342631578
mp-557997,CaSeO3,-2.306927035968752
mp-561179,Ba2CuIO2,-2.230958756666665
mp-559051,BaBiO3,-2.233427010999999
mp-41283,BaLaTaMnO6,-3.186556689026438
mp-30312,Ca2SiIr2,-0.7394271079999991
mp-5986,BaTiO3,-3.490321403666664
mp-622930,Ba4In6O13,-2.305135242826086
mp-561481,Ba5Ru2ClO9,-2.446722835882353
mp-554264,Ba3Tb2(PS4)4,-1.49501083377619
mp-557807,CsK2AuO2,-1.254032160692528
mp-555620,BaNb7(P2O11)3,-2.9720629400607903
mp-27608,Be4TeO7,-2.572461434305555
mp-556761,Ba5As3ClO12,-2.740808625595239
mp-865191,FeGeRu2,-0.161265363749999
mp-760319,Bi5O7F,-1.715556167884616
mp-997017,AgClO2,-0.242563136666666
mp-537,ErCo2,-0.226923386666662
mp-669375,Gd3B2(O2F)3,-3.727204227380952
mp-752983,CeZr7O16,-3.780457149166667
mp-753755,Bi3O4F,-1.8213330512500012
mp-1006277,CeGa4Co9,-0.214004188928571
mp-540635,BaSn(GeO3)3,-2.35182028357143
mp-768490,Bi2(SO4)3,-1.858549197941177
mp-21885,Ca2InPt2,-0.988502850000003
mp-568495,Cu10Sn3,0.021947803461537
mp-755137,BiO2,-1.357832416666665
mp-1208,ErAl2,-0.57291119111111
mp-2892,BaNd2O4,-3.5134170467857153
mp-2738,DyNi,-0.44842314583332904
mp-721586,BaSi2(H3O4)2,-2.244087048088235
mp-996964,CdAgO2,-0.8645121154166661
mp-759825,BiOF,-2.179859815000001
mp-772898,AlGaO3,-2.820103238499999
mp-989404,Ca6In2NF,-1.101634703333333
mp-12386,ErSi3Ni,-0.6392581580000001
mp-6122,Ba2NdSbO6,-3.01343531975
mp-680153,CdI2,-0.825207489999999
mp-12056,Ba(POs)2,-0.670666309857142
mp-1018672,CoAs2,-0.270437095
mp-772779,Ca(SeO3)2,-1.7498698746875
mp-760403,CaCd3O4,-1.848988828749998
mp-622197,Cs2PtS6(O3F)6,-1.9194353222518281
mp-707977,AlPO4,-3.108616154107141
mp-8868,Ba3NaN,-0.331969978275862
mp-556041,Ba2NiF6,-3.526653002222222
mp-18893,Ca2Mn3O8,-2.416973564137931
mp-6301,Ba3CeRu2O9,-2.669351850666668
mp-755382,BiSbO3,-1.618531182
mp-780106,FeNi(PO4)2,-2.128447954107143
mp-769266,Ca3Ta2O8,-3.473256686128205
mp-20095,Eu(FeP)2,-0.8869592088571431
mp-989526,Cs2KTlF6,-2.724906554989368
mp-1018077,ErGa,-0.731367804166666
mp-1018094,BaGaSnH,-0.5414035909375
mp-772798,BaLa2O4,-3.528688635476191
mp-769228,Cs5YO4,-1.8681350853275882
mp-4171,DySi2Ni,-0.8349661191666671
mp-558199,CuAs4S3Cl,-0.263227873452932
mp-779156,CdSeO4,-1.308611430807288
mp-27692,BaB4O7,-3.022734623993024
mp-31275,Ba(TeP2)2,-0.5134393967006781
mp-1014281,C3N,2.096777465624998
mp-567734,AlAs3(SeCl)4,-1.03045002140625
mp-259,AlMo3,-0.258336353750003
mp-554141,Ca3SiO5,-3.377418933518519
mp-21537,Ce(In2Au)2,-0.38171820273809304
mp-31160,CaZnSn,-0.516805693333332
mp-556515,AsSOF9,-2.175274091458333
mp-996963,CdAgO2,-0.868751446666665
mp-13863,BaGeO3,-2.696001211500001
mp-7704,Ca(AlSi)2,-0.35477174999999905
mp-643384,BaHIO,-2.129415744687499
mp-570838,CdHg4(AsI2)2,-0.40619386318182005
mp-42227,Cs2ZrTlOF5,-3.166270673264369
mp-13356,Ba2SrTeO6,-2.730477315666667
mp-690495,Fe5SnO8,-1.658565361071429
mp-27660,Ba(FeS2)2,-1.1502988628571411
mp-19318,Ag2MoO4,-1.251052689761907
mp-14734,CsCOF3,-2.328574122025864
mp-19934,CeMgPt,-0.8297022472222231
mp-28704,Cr4As3,-0.103979990357143
mp-541433,Cd(BiO2)2,-1.550261877678572
mp-31352,Er2(SeO3)3,-2.352124214430804
mp-757197,DyY3O6,-3.966317363416665
mp-568511,Ca7(B7Rh10)2,-0.618217814349592
mp-1019534,BaAl4O7,-3.447166220625
mp-19378,CrAgO2,-1.6847351029166662
mp-769390,Ca3Ta2O8,-3.453840850743589
mp-675208,Co(Mo3Se4)4,-0.547169979425289
mp-568885,Ce2Ga12Pd,-0.41670279666666604
mp-3907,Er(SiIr)2,-1.085337290000001
mp-2070,CoS2,-0.454813428541667
mp-25380,CuPO4F,-1.729450658520407
mp-677164,CuAs2Pb6Cl7O6,-1.5521065479545442
mp-778086,Ba3Y2F12,-4.228028455882352
mp-213,CaPd,-0.645455749999998
mp-637308,Ce5Sn3,-0.529866996874995
mp-8963,Cs2HgF4,-2.439617690258624
mp-28069,Ca3AsCl3,-2.252943995714286
mp-622576,Ba2Sm(CuO2)3,-2.22244960375
mp-18084,BaTb2ZnO5,-3.25075140037037
mp-569416,C,0.00210089125
mp-568293,Ca3N2,-0.9283447760000001
mp-740731,Al2H12(SeO5)3,-1.543508009125976
mp-643898,CaP2H2O7,-2.581980973482142
mp-510751,CuO,-0.763260695937499
mp-567858,Dy12C6I17,-1.3076743327142841
mp-567486,BaSr2(PN2)6,-1.069835427159863
mp-756686,AlGaO3,-2.740240361500001
mp-20742,EuPSe3,-1.1070341585327381
mp-555515,CuAg4TeO6,-0.7985137456944431
mp-631515,CaHfZn,0.920329686666668
mp-13827,Ca(BO2)2,-3.087739108809524
mp-1009733,Ca2Si,-0.534257671666667
mp-6356,Cd2GaAgS4,-0.8115381298958321
mp-614981,Ba2Nd(CuO2)3,-2.211208898958333
mp-5951,CeMnNi4,-0.269097694655171
mp-6250,BaTm2ZnO5,-3.296926820833334
mp-17977,Fe12As5,-0.066722126911763
mp-721753,CsH7(C2O5)2,-1.456239617427508
mp-24831,DyH4I3O11,-1.417942533508771
mp-861953,AlFeRh2,-0.595923447499998
mp-866301,BaBSbS4,-1.210869094523809
mp-760679,Cu3OF5,-1.597091688888889
mp-571642,CaCl2,-2.647301069166667
mp-583278,Cs3Mo15Se17,-0.887837492680265
mp-4001,BaTaS3,-1.7826291849666651
mp-12661,Cd3In,0.041733472500002006
mp-760179,Cu3(OF)2,-1.277398292142857
mp-9078,BaPIr,-0.9155305807142861
mp-685968,Ba6Nb5S17,-1.742880654553569
mp-540773,Ca2GeS4,-1.68222379392857
mp-761471,Co5O8,-1.169614579999998
mp-561499,Dy3CuSnS7,-1.702203746041664
mp-14970,BaLaCuBO5,-2.862746425462963
mp-7883,Ca(GeAu)2,-0.436452003999996
mp-31078,CeSiRh2,-0.995723801249998
mp-754408,Ba2SrI6,-1.964583933888889
mp-504927,CrCuO4,-1.351861724166666
mp-20217,EuPS3,-1.288663336782738
mp-861914,Ba3Co(CN)3,-0.693865535
mp-707734,AsHPb4(ClO)4,-1.580783501696428
mp-777292,Ba3Y2Br12,-2.38417314617647
mp-16526,AlPt2,-0.9216475133333311
mp-12017,CeAl4Ge2Au,-0.42149738999999903
mp-25225,Ba2(CuO2)3,-1.7294137845454531
mp-583193,Cs3PSe4,-1.08021588365327
mp-11407,GaPt3,-0.42973539812500205
mp-22680,DyInCu2,-0.37791175875000205
mp-29287,Cs3CoBr5,-1.644315800996168
mp-763491,Fe4O7F,-1.442262346666666
mp-758658,CaAl2(SiO4)2,-3.424325745961538
mp-756443,Er2TiO5,-3.814804013541668
mp-759386,Ce2Th2O7,-4.051168095909089
mp-13512,CaNiGe2,-0.539102191249998
mp-756715,Gd3InO6,-3.4112711201666652
mp-977592,Bi2Rh3S2,-0.519016867142856