material_id,formula,formation_energy
mp-17637,USO6,-2.7364963206249993
mp-29606,Rb2Zn3O4,-1.678057365555555
mp-980004,SmGa2Co,-0.530065888749999
mp-867897,ScTaRu2,-0.6225111480833331
mp-769620,Li2VCrO4,-2.43922193625
mp-756424,GdLuO3,-3.954000719333332
mp-754326,NaAgO2,-1.003201455761493
mp-865898,TiZnCo2,-0.34412606583333305
mp-16544,Mg4As6Ir7,-0.440334912058836
mp-16587,Dy4Si2S3O7,-3.261879170885416
mp-861868,KNaLaTaO5,-3.146247313440294
mp-27376,Rb6Si10O23,-3.018547375384607
mp-779357,V3OF11,-2.891827398666667
mp-6872,K3SiN(OF2)3,-2.706687907625
mp-684721,TiNb2Zn(PbO3)4,-2.351895718666666
mp-3183,DyBRh3,-0.793701890166664
mp-38494,Y4AsSe3,-2.001360928710941
mp-973648,FeRhO3,-0.46694791500000005
mp-12079,K(CoS)2,-0.738215235874999
mp-625521,H3BrO,-1.02951099075
mp-28387,PAuCl8,-0.595116317047617
mp-771394,Li4Ti3Mn3Cr2O16,-2.6023725423973723
mp-850422,Fe3(O2F)2,-1.801641421111111
mp-776979,Li9(CoO4)2,-1.851754422368421
mp-5760,NdSF,-3.354096816770832
mp-8590,K2HfF6,-3.6594848054999973
mp-680615,Sm4In21Pd10,-0.621641812571423
mp-765718,LiCo2OF3,-2.21186826047619
mp-1476,ScS,-2.07528723390625
mp-866169,KTl2Bi,-0.18777700597917102
mp-619475,RbFeF4,-2.81700325875
mp-2828,HfN,-1.982478059375001
mp-776491,Lu2P4O13,-3.171261369310777
mp-770492,Li24Mn11CrO36,-2.184056704267242
mp-977410,NbGaFe2,-0.257838301874999
mp-771214,Rb2S2O7,-2.110183541136362
mp-744434,YNiH3SO7,-2.056912734711538
mp-973892,EuAlO3,-3.315465348000001
mp-559932,KTeOF3,-2.5010489598194443
mp-989192,SnClF,-1.7060289500000012
mp-771976,Rb2Be2O3,-2.346473276785715
mp-2510,ZrHg,-0.16673357125000302
mp-1629,Th2Au,-0.420564369999998
mp-1087,SrS,-2.42499030140625
mp-775260,Li6CoCu3(PO4)4,-2.2637045582857143
mp-862931,ErSnRh2,-0.8253240662500001
mp-23801,K2H2IrCl5O,-1.524817024499999
mp-865872,LiZr2Re,-0.14780536395833102
mp-759793,LiTi2(PO4)3,-3.016703070634921
mp-768589,Li3CuAsCO7,-1.89437849326923
mp-676779,NaHo2F7,-4.039972203000003
mp-531195,Sr2NF,-2.04794599703125
mp-39770,Zr2P3H4NO12,-2.601160563814934
mp-643460,SnHg2(SBr)2,-0.7117132560714291
mp-989592,Sr6Sn2NF,-1.20738671
mp-775284,Li2Mn3NiO8,-1.8841202048542691
mp-31205,Zr3Fe,-0.10946759500000101
mp-626536,NbHO3,-2.42921042825
mp-20949,MnSiNi,-0.5732822223275871
mp-4876,Tl3SbSe3,-0.43585700674107103
mp-1018724,HoCuSn,-0.5448290866666641
mp-337,PuBe13,-0.081723463482142
mp-30245,Mg3H4O5,-2.160714092916667
mp-704879,Ni5Te4(BrO6)2,-1.33437666789855
mp-1334,Y2C,-0.262626155000001
mp-574148,K2ZnN12,0.046875020722222
mp-34508,Sr(SmS2)2,-2.361881084285712
mp-7456,SnF2,-2.3706701
mp-3094,SrAl2O4,-3.458835004642857
mp-756175,Zr2Bi2O7,-2.7697148922727273
mp-6954,SrAgAs,-0.911668334166667
mp-14395,NaAlAsO4F,-2.606811734234914
mp-648992,Na6Mo10O33,-2.024236461291344
mp-23259,LiBr,-1.825998821666666
mp-2560,Ti3Hg,-0.057674754375000005
mp-705530,P3H4N5Cl4,-0.74154366032366
mp-11833,UCuGe,-0.257540837638913
mp-1008669,U,0.371577350000009
mp-1001834,HfN,-0.9911279243750001
mp-695948,PH4SNO2,-1.179466834219576
mp-755690,NbO2,-2.817624642916667
mp-28548,Li8GeO6,-2.202733876111111
mp-31465,Ho5Bi3,-0.796138401562501
mp-569341,NdBPt2,-0.9263709424999991
mp-865616,Yb2AgIr,-0.7698650212500051
mp-555465,La10Si8O3,-1.436847655952381
mp-7831,MgIn2O4,-2.265400100476189
mp-5955,NaSbF6,-2.862884680172413
mp-770633,RbLi2Co2(BO3)3,-2.243068196862745
mp-15059,GdSnF7,-3.447328515555556
mp-7644,LuAsO4,-2.8563761806944523
mp-998325,RbCaI3,-1.769255370499999
mp-753021,Sr5Ir3O11,-2.219185640263157
mp-18816,Fe2SiO4,-2.262714642857143
mp-770739,LiTiFeO4,-2.594522680595237
mp-5547,Mg2B2O5,-3.014907874537038
mp-721314,NaH2SO4,-1.719513584234913
mp-13095,YAlNi,-0.586773833333332
mp-31001,KSb3O5,-1.839133234138889
mp-690570,Ni4(BiO2)9,-1.342160395806452
mp-36946,TlBiS2,-0.542146893333335
mp-11554,ZrPt,-1.057382579999995
mp-16861,Na5GeAs3,-0.52681698
mp-19105,Na3MoNO3,-1.6107388036422412
mp-582984,Pr6Fe13Pb,-0.050007051749999004
mp-774320,Mn12O5F19,-2.656033719032566
mp-973333,HoLuZn2,-0.351289865416665
mp-559868,NaLa(CO3)2,-2.561858840137931
mp-757850,K4Sb2O5,-1.853752598090911
mp-775128,Fe3Sb(PO4)6,-2.172431020819327
mp-7072,Th(CoSi)2,-0.754706964000001
mp-769630,Li2Mn3F8,-2.936104476958445
mp-975423,MnNiP,-0.547286580857963
mp-780977,Li4MnFe3(BO3)4,-2.373220513455459
mp-998712,TlGeF3,-2.161351766999996
mp-32682,Te8Ir3,-0.285929309090906
mp-568847,K4GeSe4,-1.213493228847221
mp-623854,NaNb3O8,-2.9586486913649424
mp-643043,RbHO,-1.493789289583333
mp-21960,K9Fe2Se7,-1.053200991480902
mp-12636,PRu,-0.608931266488095
mp-764891,Li5Fe8(BO3)8,-2.28508738911111
mp-558279,Tl2Te3O7,-1.395864386805553
mp-862736,SmAg3,-0.197804233749998
mp-29635,PuGa,-0.5618727506249991
mp-631386,Mg2NbFe,0.576391344999999
mp-201,Yb5Sb3,-0.972330813124997
mp-568931,YbNiSb,-1.001248031666667
mp-643364,HPbClO,-1.4681049815625
mp-694318,In2(WO4)3,-2.074234350049019
mp-15308,TmSi3Rh5,-0.9562240253703711
mp-18730,K3Na(FeO4)2,-1.411235263080664
mp-24336,MgH4(ClO)2,-1.629745705555556
mp-757616,LiSn(PO3)4,-2.464901852883596
mp-18126,Tb3CuSnSe7,-1.543848400533853
mp-8407,Li3LaP2,-1.162879446825396
mp-5448,Pr3SbO7,-3.265689170000001
mp-3696,UNb3O10,-3.188354872142856
mp-23488,Tl5Se2I,-0.610619385169277
mp-556717,Tl3Ga9S13O2,-1.102230409814815
mp-570900,K4Sn9,-0.21640063184615202
mp-763989,Mn3(OF2)2,-2.526166953199234
mp-772783,Li2Mg3Ti6O16,-3.298587596543208
mp-774721,Li5La3Nb2O12,-3.092948051098485
mp-775424,Na5Li4Ti5O14,-2.8406343702463053
mp-685992,Li2CrCl4,-1.635047187214282
mp-752636,LiSbO3,-2.029383609666666
mp-6486,SrBPO5,-3.121286575267857
mp-675679,UTa2O7,-3.410023664966665
mp-556231,In2GaBiS6,-0.6783089225208241
mp-554171,Mg3(PO4)2,-3.029029593791208
mp-13815,Rb2NaErF6,-3.60256619763793
mp-761019,Hf2N2O,-2.4374403055
mp-38728,Sr(ErS2)2,-2.343676870773807
mp-771334,Li3TlPCO7,-2.16827620253663
mp-571453,K2SnCl6,-1.859705102166665
mp-28842,Si3PH9,-0.031816922055859
mp-631553,Ga2BSb,0.883107588333331
mp-769616,Na2CrPCO7,-2.393824489575121
mp-18267,La2Cu(SeO3)4,-2.044613067598685
mp-773576,LiZn2Fe9O16,-1.6829454229761902
mp-999395,Nb3Fe,0.030735325
mp-532695,Na3Zr2Si2PO12,-3.145676329939038
mp-630880,LiNd2Tl(MoO4)4,-2.428362841319445
mp-977383,ZnPd2Au,-0.33670066749999805
mp-1017987,Tc3N,-0.22337149218749902
mp-7257,K3NaP2(O3F)2,-2.759114648029644
mp-569833,Zr2Ga,-0.5389846233333341
mp-554463,Na3LuSi2O7,-3.070539563651635
mp-22302,ZrVP,-1.104168687380952
mp-18183,YSnF7,-3.549092376388889
mp-29803,SiH,0.036175890624999006
mp-675301,Na(NO)2,-0.20638467127586202
mp-20896,TmInNi4,-0.40601214944444103
mp-998761,TlNiF3,-2.109648550000003
mp-850956,Li2Mn3Cr3O12,-2.061949646522988
mp-17743,Sr3Sn2O7,-2.720771853333333
mp-736,Li3P,-0.809360786994047
mp-973911,Pa3Re,0.182091980000009
mp-775783,Hf2N2O,-2.52734978075
mp-677323,Li11TiSb5,-0.6825244171568601
mp-982,TmPd3,-0.953765537499997
mp-976030,PrHoMg2,-0.07136018916666301
mp-13978,Rb2ThF6,-3.880781686111109
mp-772552,Li6CrO4,-1.9875943709090902
mp-770727,Li3Al2FeO6,-2.682679986458334
mp-21852,Nb3PbS6,-1.354385279999999
mp-17196,TiAs2O7,-2.189625841083333
mp-775543,SnPHO5,-2.230909291361608
mp-540621,SrGa2(GeO4)2,-2.453666516153845
mp-772671,Li5CrO4,-2.098356880291667
mp-759290,Li3Bi2(PO4)3,-2.4661688149464283
mp-12510,LaSnPd,-0.9440975677777751
mp-567428,Tb3CuGeSe7,-1.545870863867187
mp-865587,Y2CuRh,-0.5259974874999981
mp-756494,Na3GePCO7,-2.210290680290829
mp-675332,InI4,-0.5331390353333331
mp-561290,K2BiF5,-2.9336584202500022
mp-14234,MgB4O7,-2.927714725451389
mp-752924,NaYbO2,-3.191410233124999
mp-779982,Hf2N2O,-2.522520581999998
mp-19369,Ti2CrO5,-3.091858370520834
mp-4344,HoTaO4,-3.731865572888878
mp-567338,Pr(SiPt)2,-0.9891786663333341
mp-21057,La(GePt)2,-0.9665638675000021
mp-770795,Na3CuBSO7,-2.045733297754199
mp-773046,Mg4Sc3(SiO3)8,-3.297461804230769
mp-1009083,MgSnP2,-0.301047438571427
mp-999439,Nb3Cr,0.109810792499999
mp-12469,LaCd2Pd,-0.573014344999998
mp-9056,ZrPdF6,-2.9949714668750023
mp-756853,LiBSbO3,-2.21955773375
mp-626554,NaH9O5,-1.315906474175288
mp-975380,RbCdO3,-0.7188131464999991
mp-861666,LiRu2W,-0.061894856666668004
mp-16914,Y2Si5Ni3,-0.745757004499999
mp-607409,Hf5CuPb3,-0.090539584444441
mp-555682,Sn(SeO3)2,-1.511390035520833
mp-12626,K2SrBe2F8,-3.5929639749615383
mp-20524,Sc2VB2Ir5,-0.767005026833334
mp-6799,LiCa4(BN2)3,-1.3168749807738092
mp-698687,K4Mn2H16S4O23,-1.650788806323715
mp-20705,U2SnRu2,-0.302291176999997
mp-768171,Li8SbS6,-1.258697024777777
mp-971863,ZnP,0.039131972886906
mp-30879,Tb5Tl3,-0.29478368604166705
mp-570021,Ti6Tl5AgSe27,-0.9553241318362721
mp-625447,Pr(HO)3,-2.198772377202387
mp-3895,Ho(SiRh)2,-1.114852260999995
mp-568987,Na2BeH4,-0.31970198253694604
mp-973964,Lu2GaAg,-0.52546614958333
mp-4988,TlAsS2,-0.511326553333333
mp-754231,LuTiO3,-3.6543436930000013
mp-975013,Rb3Dy,0.644651911458334
mp-36733,La2CdSe4,-1.801198126339285
mp-8605,SrSbPt,-0.9505581366666671
mp-5616,Sr2P2O7,-3.236136655616882
mp-1018736,KCdAs,-0.39675816824999804
mp-756152,Sm4U2O11,-3.838594743235292
mp-640159,V2GaSn2,-0.12507118149999802
mp-6604,Na2LiAlF6,-3.4304397095
mp-743617,KMnH4Cl3O2,-1.581524176607366
mp-756166,LaHoO3,-3.917213721999999
mp-20805,PdPbF4,-1.9771300641666651
mp-754409,HoBO3,-3.530551599833332
mp-20078,Pb2O3,-1.393345208999998
mp-2980,Pr2Te4O11,-2.264977823235281
mp-721582,H2S,-0.15723239927083302
mp-775757,HfO2,-4.00988240208333
mp-722913,Hf3Zn3N,-0.819390089821431
mp-601861,RbInS2,-1.193291512916665
mp-30756,LaSn3Ru,-0.5311842907500001
mp-776970,Li5SbS4,-1.185465697166666
mp-770413,LaHoO3,-3.870543979
mp-772968,LiTlPHO3,-1.9839961353656481
mp-772433,Li2Cr(BO2)5,-2.677998095972222
mp-22874,PBr5,-0.7813882074404751
mp-555844,MnSbS2Cl,-0.840044252771542
mp-975639,Pr3Er,0.042520405416667004
mp-25929,Li3Bi2(PO4)3,-2.509938990196429
mp-685855,Nb3(Bi5Cl9)2,-0.8715092363978441
mp-972522,SmTmZn2,-0.333783808750002
mp-757372,Sr5U5O19,-3.704707342931033
mp-699248,Sr2B5H2O11,-2.703602989166666
mp-31077,Tl2TeI6,-0.641614162037035
mp-23352,Ge(Bi3O5)4,-1.696776255303031
mp-774237,Li5Cr2Ni5O12,-1.748726702361111
mp-8560,SF6,-1.844461896116071
mp-862977,Pm2AgIr,-0.558517127500003
mp-756435,Sr3Nb4O13,-3.173566756750001
mp-7437,KZnP,-0.576517767242063
mp-17190,Sc5Ge3,-0.909267095
mp-778458,Li3Cu2(SO4)3,-1.846770737875
mp-849572,Li2Fe3OF6,-2.520365893888888
mp-21079,Tb(GeRu)2,-0.655830899333335
mp-777297,K5H(CN2)2,-0.555184238125
mp-6646,HoNi2B2C,-0.51598778972222
mp-759946,Sc16O15,-3.146574829516129
mp-767720,Li2V4Si4O13,-2.76679714115942
mp-10340,Na2GeTeO6,-1.946576293942528
mp-978891,Sm2InAg,-0.465502733749999
mp-484,Te3As2,-0.001508734
mp-568049,NdMgSi2,-0.47882872687500105
mp-760979,Na2Ti2O5,-3.001884589658366
mp-20785,Nd(FeGe)2,-0.43562417949999305
mp-23969,ZnH2SeO5,-1.350304374427083
mp-541094,Ta2Hg3S(O2F5)2,-2.651575597483334
mp-580439,UFe5Si3,-0.40380028777777405
mp-20506,NbNiTe2,-0.655144613958333
mp-11401,ScGa2Ni,-0.646649367499999
mp-6985,Ti,0.08726523333333301
mp-770771,SrSc2O4,-3.737810427499999
mp-25908,Sn(PO3)4,-2.485675747857143
mp-770956,Li2TiMn2O5,-2.524998473086206
mp-16519,UAlNi4,-0.34729456333333003
mp-644245,Na2PH3O5,-2.055477281468316
mp-754827,Tm2TeO2,-3.263483473333337
mp-720869,H12C4N2O9,-1.135402720740741
mp-571465,PbIBr,-1.065245913333332
mp-11808,ScNi4Sn,-0.41218768333333305
mp-777444,Li3Fe2F7,-2.832480138333333
mp-2807,ScP,-1.6662535364880942
mp-14625,NdCoGe3,-0.5622354905
mp-828,SiNi3,-0.433701681250001
mp-762264,Li2CoSiO4,-2.43107404
mp-16927,NaTbGeO4,-2.866214607935139
mp-761629,Li17V16O32,-2.444152372871796
mp-15865,RbScAsO4F,-2.8352790687500002
mp-30737,YMgAg,-0.26388169111111004
mp-554138,Pr2SbO5F,-3.232925002037037
mp-756156,Rb2ZrO3,-2.750381017500001
mp-9527,NdMnSi2,-0.6576439229956901
mp-2706,SnF4,-2.5714796239999993
mp-30352,NaAg2,-0.078582578333334
mp-1386,HoPb3,-0.254793283749995
mp-556143,Na3Ga3(TeO6)2,-1.984335914873563
mp-945077,YTe3,-1.238969529999997
mp-542637,K2B2Se7,-0.8084964817490511
mp-560894,Li4Be3P3ClO12,-2.870299692707039
mp-765725,Na3Li5Mn5O9,-1.857580590248171
mp-29589,Ta3(Se4Br3)2,-1.107774456220588
mp-757404,Li2Cu2Si5O13,-2.662337041439395
mp-977590,NdInPd2,-0.7247907910416641
mp-29462,NaGa3Te5,-0.7033188919125141
mp-975204,Rb,0.011841107500000001
mp-505597,Tb(Ni2P)2,-0.825350599421766
mp-976425,Nd2Mg,-0.048576671666666
mp-7534,K2Cd2O3,-1.405377440642856
mp-646039,In7Cu10,-0.043822473823531
mp-973432,LuScRh2,-1.004918235416664
mp-505534,PuB6,-0.450465615357152
mp-16747,LuAgPb,-0.295174541666665
mp-676315,Y2GeI2,-1.3709443849999992
mp-976725,Hf3Au,-0.21616196250000902
mp-867735,PrSmO2,-3.092887266666666
mp-759812,Li4Ti11O24,-3.281790044358975
mp-764817,Li2Mg11(WO4)12,-2.442048085228311
mp-1020193,KNO3,-1.408985991949999
mp-10300,ZrMoP,-0.9826477182142841
mp-28623,Li4Ge5O12,-2.223718369682539
mp-768440,Li3VS4,-1.290547834999999
mp-864794,ZnAg3,-0.009709552499998001
mp-776120,Mn3Cr2Cu(PO4)6,-2.304383790601396
mp-861505,Pr2MgTl,-0.24411787041667
mp-977204,NaTl2Sb,-0.20396447487268402
mp-1007761,HW,0.161137274374997
mp-770842,Li4Mn2Co3Sb3O16,-1.831042183899835
mp-31472,Rb5Hg19,-0.20927981229167303
mp-623058,Ti2Ag2P2S11,-0.88437805392857
mp-28970,Nd2NCl3,-2.385288347708332
mp-849388,V2O3F,-2.5721509666666673
mp-976265,Hf2OsPd,-0.742003662500003
mp-10132,UB2Os3,-0.32522436805554805
mp-23562,KIO4,-1.166621643708329
mp-972461,Sm3Zr,0.13853885874999902
mp-19427,Na7(CoO3)2,-1.498345034310343
mp-769263,TbInO3,-2.9320331816666663
mp-772486,Lu2Sb2O7,-2.8405381416666673
mp-6755,KSn4(PO4)3,-2.363744438558928
mp-766971,Li4CrS4,-1.261477365370369
mp-1013531,Sr3BiN,0.5227135432500001
mp-19339,LaNiO3,-2.47170472
mp-989178,ScOF,-4.041968345
mp-23778,H4CN2O,-0.707929925625
mp-720212,Rb9Na2Al11Si13O48,-3.073222792051309
mp-775460,Li2CrFe3O8,-1.819675970833334
mp-21440,NbCrGe,-0.26626741944444404
mp-29993,TaAgF6,-2.9137138465416683
mp-559209,NaCuAsO4,-1.5868749409113292
mp-13019,NaLa2TaO6,-3.504750970871265
mp-541870,KAl2P2H5O11,-2.413148885846938
mp-557584,K4Ba(GeO3)3,-2.2811196105294123
mp-862493,LiEr2Al,-0.23873919583333603
mp-765310,Li5Ni2O2F5,-2.583416931190477
mp-558724,La2SiS5,-1.908855694257813
mp-11338,Sc3Si3Ni2,-0.8520413637499981
mp-972174,YbLuTl2,-0.357262400416665
mp-865878,Ti2TcNi,-0.47977720041666605
mp-7502,K2Sn2O3,-1.736641652785711
mp-569576,La5(SiN3)3,-1.6316990183088231
mp-505781,MnGePd2,-0.324724880732758
mp-567820,K6NbTlAs4,-0.454670621819445
mp-14532,NaTa3O8,-3.205221514448276
mp-975222,RbSr3,0.138917125625
mp-764971,Li3Fe8(BO3)8,-2.247450847519379
mp-767644,LiV(PO4)2,-2.5020696952182533
mp-1018802,MnGaGe,-0.115868405143679
mp-541908,KSbF6,-2.90020621465625
mp-8402,RbMgF3,-3.507841387833333
mp-561304,KAg3As2S5,-0.533055830772726
mp-569826,K2Ge2Se5,-0.9495418120798601
mp-17418,SmSnF7,-3.562214694722223
mp-12843,YCuS2,-1.591174854531262
mp-774886,Li4Nb3Cu3(TeO8)2,-2.085868510238095
mp-559574,K3Sm(BO3)2,-2.813610893965278
mp-6248,LiGd(PO3)4,-2.91949997510582
mp-772191,Tm2TeO6,-3.051692781851852
mp-754891,Zr5N5O2,-2.19969183
mp-1176,TbTe,-1.536101655000003
mp-764573,LiFe2(BO3)2,-2.268818747651515
mp-554145,Na3SrPCO7,-2.573312805675444
mp-299,Mo9Se11,-0.537759131484372
mp-675638,Pr2PbS4,-1.875285029047618
mp-752709,InBP2H5NO9,-1.994139079808897
mp-1019775,K2Ge(S2O7)3,-1.880505572316666
mp-12975,Sm2CdPd2,-0.757627864
mp-570216,Sm(AsPd)2,-0.921905412800003
mp-763790,Mn(PO3)3,-2.4680577416815073
mp-753544,Li2BiO3,-1.815847074444445
mp-767091,LiNbSn3(PO4)6,-2.599183586748299
mp-571298,SiC,-0.30551445693252405
mp-569607,Pr(GeRu)2,-0.654298794333334
mp-773070,KNb2O5,-2.819112873614583
mp-22301,Sr2DyCu3(PbO4)2,-2.066837558854166
mp-867163,Sr2AgPt,-0.53065463979167
mp-10112,LaB2Ir3,-0.650002868888892
mp-775231,NiSb3(PO4)6,-2.253757417289915
mp-773133,K3CuB2P4H3O17,-2.409463520996826
mp-18515,NaGdSiO4,-3.2877214291256163
mp-776611,Li4Mn2NbNi3(PO4)6,-2.433757865176313
mp-542638,K2Mn(PS3)2,-0.9744731347015211
mp-772571,Li4CrO5,-2.020863452333333
mp-23799,NaZnP2HO7,-2.372426702659584
mp-23710,MgH2,-0.2827190725
mp-18288,Ti(SnO2)2,-2.432151184404761
mp-765022,LiVPO4,-2.631680054234693
mp-22075,In7Pt3,-0.5286499090000001
mp-773049,K3LiNb6O15,-2.7623239830033333
mp-31460,NbCoSb,-0.264988063333333
mp-780583,Li2MnFe(BO3)2,-2.418061565244251
mp-543039,TePbO3,-1.550890769833333
mp-1383,UCo2,-0.10901747166667
mp-29088,Sr3(GeN)2,-0.7668531057142841
mp-20346,TbInCo2,-0.234314530833333
mp-775601,Li5Mn3Bi2(PO4)6,-2.476297943457923
mp-706239,NaCa2Mg2V3O12,-2.850536808193965
mp-972794,SiSb3,0.32900151375000003
mp-17090,SrTlPS4,-1.2149554225680261
mp-570164,YbTl3,-0.21766893125000303
mp-679669,NaZr2SN2Cl,-1.872395701268473
mp-554888,KUI3O11,-1.687038816937499
mp-849463,Li11(FeO3)4,-1.868822404691358
mp-570779,Pr3OsI3,-1.118026980714284
mp-12398,Mg(CoGe)6,-0.104988767307693
mp-555096,PrS2,-2.010772799930554
mp-29460,Tl3PdCl5,-1.192721498888891
mp-13137,Hf2CS,-1.510628716953128
mp-769601,LiVSO4F3,-2.431049479583333
mp-983327,KH4O2F,-1.6881215821562492
mp-554072,K2CO3,-2.107353279916662
mp-651772,UTe5,-0.54977849041667
mp-19505,SrCr10O15,-2.316224642115383
mp-557441,KAu(IO3)4,-0.9163156492916661
mp-31980,LiMn(PO3)4,-2.51592205832421
mp-758558,SbNO,-0.9294039833333331
mp-768821,Li2Bi2B2O7,-2.266088386666667
mp-984754,PmHo3,0.011891413125006
mp-20906,HoCoC,-0.313696221666665
mp-569106,Yb2CdSb2,-0.7229657420000021
mp-695998,K2ZnH4,-0.32508407714285603
mp-974760,Rb3Th,1.004179524375001
mp-557211,SiO2,-3.253923577916668
mp-781682,LiMn3(BO3)3,-2.401182912164152
mp-778885,Li10Mn3Cr2Ni3O16,-1.965165646091954
mp-606,U3As4,-1.092848703571438
mp-722997,NaCaAlH2OF6,-3.170665265323276
mp-775181,Mn3Nb(PO4)6,-2.405639565048537
mp-780195,LiVP3HO10,-2.474557288031993
mp-21639,KTiF4,-3.495621288222222
mp-23653,Na3MgC2ClO6,-2.239514329356765
mp-773101,K3Li2Ta6(PO8)3,-2.996092008061716
mp-779525,Li3Sb3P8O29,-2.432563137491693
mp-971934,Zn3In,0.105887797499999
mp-2729,Sn7Os3,0.033511083000001
mp-775980,ZrO2,-3.750909979444446
mp-862939,PmMgCd2,-0.307593135624999
mp-699368,Na3(W2O3)2,-0.851024330318301
mp-753842,YZr5O11,-3.703035137941176
mp-3439,SbPO4,-2.355047281607143
mp-769319,LiNb(OF)2,-3.170344275972223
mp-777670,Li4V3Cr3(SnO8)2,-2.387375552976189
mp-2187,TiSb,-0.553936993333334
mp-3051,Mg2GeO4,-2.720685930714285
mp-23986,NaH6ClO5,-1.181501023375332
mp-541688,K3GaTe3,-1.048316028107144
mp-753776,Li4SbS4,-1.121455008703703
mp-4520,Y(CuGe)2,-0.49660633399999904
mp-542024,Sc2GaB2Rh5,-0.890809058583332
mp-18156,KBaPSe4,-1.289564559466837
mp-19323,SmVO4,-3.189556127500001
mp-505260,Te10Mo3I10,-0.40422982007246405
mp-542171,HoNiGe,-0.799175119999998
mp-561346,Na2ZrGeO5,-2.686143878500957
mp-574266,MgGa,-0.13322318125
mp-752768,LiAgF4,-1.8420902394444552
mp-9236,U2Si4Mo3,-0.493861240555563
mp-849518,Mn12O7F17,-2.5666837248659
mp-974445,Re3Ge,0.384077281071427
mp-755441,SrTaNO2,-2.744296644466666
mp-570873,Nb(Te2I3)2,-0.48503525378787804
mp-656850,Ti2O7,-1.839757052407407
mp-11413,ScGa2,-0.569961785000001
mp-504607,YInO3,-2.969400000333334
mp-3605,Th(CoGe)2,-0.5875198459999971
mp-982980,Na3DyCl6,-2.239024880000001
mp-570218,LiBeH3,-0.327462007249999
mp-766345,Y5O4F7,-4.263526695
mp-26173,LiBi3(PO5)2,-2.305099428913691
mp-620190,V2P4S13,-0.7237267563721791
mp-865051,NaCa2Tl,-0.29801854250000304
mp-764889,Li9Fe5O12,-1.9127758473076921
mp-605642,KB3(HO3)2,-2.411243223677083
mp-21532,La2Ge2O7,-3.036388924318182
mp-14112,PdF3,-1.3887831224999991
mp-862724,Rb2Pu2O5,-2.757883087500002
mp-1285,PtO2,-0.9266031233333341
mp-698060,PHOF2,-2.187462387428571
mp-775176,Li4FeTe2WO12,-1.9143475963333332
mp-780329,Li2MnV(P2O7)2,-2.651910776734959
mp-972908,La3Dy,0.030047082500001
mp-17912,Rb3SbSe3,-1.15537654064732
mp-766179,LiSi3BiO8,-2.803427819294872
mp-849672,Mn6OF11,-2.83097662625479
mp-22319,UB12,-0.281307531923077
mp-3476,P2PbO6,-2.487034966170636
mp-975531,RbCr5Te8,-0.5625300714880931
mp-644,K5Te3,-1.174004153593751
mp-773135,Li3Cu3(PO4)2,-2.061750154017857
mp-569428,Pr2Fe14B,-0.040314487941174
mp-773136,LiCu2PO4,-1.852504445059524
mp-6099,LiSc(SiO3)2,-3.340805022583333
mp-850950,LiMn3(BO3)3,-2.390035942476652
mp-541487,TlPt2Se3,-0.5280740395312521
mp-1009650,RbSb,0.40322153125000004
mp-573541,Sm3(AlNi3)2,-0.495343710909091
mp-773830,Sn2N2O,-0.579010471249999
mp-770213,Li3Ti(BO3)2,-2.730646218055556