material_id,formula,formation_energy
mp-505601,Nb3Co3C,-0.24511490892857102
mp-510581,PrNiSnH2,-0.598292627833333
mp-12780,Sr(GaAu)2,-0.601445783999999
mp-775238,LiFe2(BO3)2,-2.267712176515151
mp-768268,Li14Co2S9,-1.3066839485666661
mp-696993,Sn2H2SO5F2,-1.8828221774999991
mp-23703,LiH,-0.48936213770833303
mp-766877,Si6Bi9O26,-2.3241356443902452
mp-755552,LiYS2,-2.012445979583333
mp-977415,HoCdAu2,-0.659919823749997
mp-767114,SnP4O11,-2.455569728191964
mp-973736,GeAs3,0.394584902812502
mp-765385,LiV(CO3)2,-2.076333062333334
mp-756784,LiSbS2,-0.873537722083332
mp-28273,K3CuO2,-1.287806514875
mp-571263,KIn9Co2,-0.045973213104158
mp-1161,LaSe,-2.2639832570312493
mp-4187,Ge2N2O,-0.817928909
mp-774361,Li2Mn3F8,-2.996483674458445
mp-30109,Sb2(AuF6)3,-1.9691912204347821
mp-981210,Tl3V,0.508951774999999
mp-765665,VP2H8(NO4)2,-1.631743525204081
mp-625211,LiH3O2,-1.5347990820138881
mp-559109,ErGeBiO5,-2.65841232984375
mp-8608,K(Cu2As)2,-0.17922482889285601
mp-703517,NaMgPH12O11,-1.5603902885008512
mp-11582,LiGaSe2,-1.063571209322917
mp-27637,NiBr2,-0.7516804466666671
mp-29710,Hg4P2O7,-1.7267410380219812
mp-13133,K2TiO3,-2.761319902138887
mp-9938,Hf2Si,-0.7910358300000031
mp-12365,KThCuS3,-1.719101605791665
mp-559064,SnP2(Cl5O)2,-1.535927579119047
mp-9882,Y2Si5Rh3,-0.9659690714999981
mp-630376,Sb6Pb6S17,-0.6250925138793081
mp-21718,Sr2In4Pt3,-0.6854482060185191
mp-680395,Li3As7,-0.35200117081249904
mp-771065,Li4CrFe3O8,-2.056659350520833
mp-1037,PrPt5,-0.6931851386111051
mp-8211,GaGeTe,-0.29642961166666704
mp-980199,YbDyHg2,-0.5763946587499971
mp-28638,Gd2CCl,-1.2333587012500011
mp-30423,VAu2,-0.052279986666661005
mp-570466,Li2Ca,-0.019342178611111
mp-561514,NaSrB5O9,-2.94855788310704
mp-861975,PaO3,-3.081037021250002
mp-8042,ZrGeO4,-2.964421039166666
mp-568606,CsErTa6Cl18,-1.9096707495636602
mp-7897,K3P,-0.335066864806547
mp-775334,V3Cu(PO4)4,-2.493447936607143
mp-706336,Na4Be2Si6Sn(HO5)4,-2.673892267986952
mp-971853,Zn3B,0.620357867708333
mp-11531,VNi2,-0.216830600000001
mp-764782,Na5WO5,-1.862863137899686
mp-1016200,MgGeAs2,-0.35693942374999904
mp-29940,SbClF10,-1.7926689835416671
mp-760461,LuBO3,-3.540390107166666
mp-555874,LiAsS2,-0.8557796164583331
mp-961680,NbAlPt,-0.159647502833337
mp-7168,TbPPt,-1.526961322658735
mp-11400,ScGaNi2,-0.5701341281249991
mp-766361,Nb2O5,-3.022328621285716
mp-554577,Li4P2O7,-2.743394560970695
mp-34663,NaAsSe2,-0.535076397343749
mp-19966,GdTl,-0.44317195500000306
mp-567258,LaZn2,-0.39862143000000105
mp-864907,MgZrPd2,-0.691977061249999
mp-698101,U(HO)8,-1.7526892908823521
mp-8631,LuAlB4,-0.556593194444443
mp-555691,SrZn(SeO3)2,-1.92458627646875
mp-21606,TiMnSi2,-0.611703208232759
mp-530081,Mo15N16,-0.537982668870969
mp-775340,Li2Cr(Si2O5)3,-2.945103616527777
mp-557704,TlNO3,-0.983139618000001
mp-760477,SmBO3,-3.427468958833333
mp-20731,In2HgSe4,-0.587147221964284
mp-540714,NaH8SNO6,-1.382499880716278
mp-5525,KAlO2,-2.909401789781249
mp-8947,Sr(BS2)2,-1.234003620476189
mp-21683,In2(Ni7P2)3,-0.398653241650243
mp-3529,K3VS4,-1.415487692093748
mp-770399,Li6Ti2O7,-2.738186664444444
mp-4471,ScAlO3,-3.669621607
mp-763200,LiVO3,-2.342649385666668
mp-16690,K2NdP2S7,-1.323202539065474
mp-978798,Sm3I,-0.193460655
mp-19293,Sr2FeO3F,-2.877293910892856
mp-625718,Y(HO)3,-2.220198285535714
mp-758037,Li2Ti3P9O28,-2.739197645915532
mp-759650,Li3Bi3(PO4)4,-2.420222445714285
mp-5493,PrSi2Ni,-0.7705466616666661
mp-779239,Li3MnV(PO4)3,-2.61234913084298
mp-999544,YAg2,-0.32084362999999805
mp-29454,Na3TlO2,-1.336874567911876
mp-753692,Ho2Ge2O7,-3.088216099090916
mp-569415,Nd5Co19B6,-0.220165477396174
mp-972046,Yb2HgBi,-0.47246134562499903
mp-22512,Sr2In2O5,-2.485892069814815
mp-779300,LiFe2OF5,-2.538842458425926
mp-545506,GdZnPO,-2.029670577410714
mp-779317,LiMnF3,-2.979985421919541
mp-976060,Li3C,0.426453397152777
mp-863423,SrGa12O19,-2.3367242425
mp-999557,Mn2SnRu,0.049300554870686006
mp-778828,Mn3O5F,-1.9463634381992332
mp-21576,Sc2Te,-0.9620751858333331
mp-11151,NaPrTe2,-1.589055779791667
mp-772591,Li2Mn2Si2O7,-2.683296297886825
mp-504211,LiSn(PO3)3,-2.520665561232993
mp-1016871,ZrHgO3,-2.192400905500001
mp-4653,Y(SiIr)2,-1.084955781999997
mp-556039,Na3Y(BO3)2,-2.826943906039272
mp-1009129,MgO,-2.700812314999999
mp-37179,Ta2CN,-0.8808351479375031
mp-827,KN3,-0.22111233375000103
mp-22721,Mo6PbSe8,-0.573745214499998
mp-912,LaPt2,-1.179321179999997
mp-570578,ZrIn3,-0.32967619875000004
mp-770464,LaBiO4,-2.320500991666666
mp-14411,K4GeO4,-1.953662920722222
mp-782645,Li2MnPHO5,-2.355775904549054
mp-5491,MnAlAu2,-0.24791825448275803
mp-1009489,RbTe,-0.603536877083332
mp-867850,ScMnRh2,-0.6200353282327581
mp-762049,LiCu2PO4,-1.839107542559523
mp-569940,K3Bi,-0.500781259062502
mp-631364,TaOsPb,0.805066687714277
mp-855,MgBe13,0.000521484642856
mp-756372,Rb2MgO2,-1.897789712999999
mp-760490,Mg7Cu2O9,-2.510196606111111
mp-26261,Li2Cu(PO3)4,-2.466710169749375
mp-29000,Na3B5S9,-0.9753523339688971
mp-4200,ScPO4,-3.354315457440459
mp-672966,LiCu(PO3)4,-2.306191382883598
mp-570744,Si3As4,-0.046792985
mp-17279,SiO2,-3.252491369375001
mp-767404,Gd2As4O11,-2.368476725294116
mp-971703,V3Ag,0.37058322333333205
mp-1009207,MnSb,0.025594807758622003
mp-2117,TbN,-1.9769477293750022
mp-568588,NdTlSe2,-1.608457378880201
mp-27191,Zr9S2,-0.7009283793181821
mp-18073,K7TaAs4,-0.44525819609027706
mp-756294,Li2Ti2O5,-3.128375366481481
mp-11944,LiYbGe2,-0.639239352916668
mp-14368,SbAsO5,-1.733173623214286
mp-21760,Rb2In2Sb3,-0.42184801708333103
mp-541202,TlCuAsO4,-1.387891040833333
mp-764524,Li3Fe8(BO3)8,-2.244669743798449
mp-765639,Sm11Y5O24,-3.885687876875
mp-631390,SrZrZn,0.855029464444444
mp-761687,LiSbPO5,-2.3051110047470242
mp-11220,Sc2Al,-0.366392015
mp-33302,MgAl2O4,-3.349386166071428
mp-13502,TmCoC2,-0.35491821500000104
mp-504687,USnTe,-0.57033779222222
mp-754375,NaTi2O3,-2.775375980507663
mp-5641,Tm(MnGe)6,-0.323664321352786
mp-981662,YbU3,0.5713675125000031
mp-555509,Ho3CuGeS7,-1.710859635624995
mp-1018151,NbPd2,-0.41856971999999804
mp-40134,ZnSiH12(OF)6,-1.872398666730769
mp-568225,TbB4,-0.6738813725
mp-4598,Sr4PtO6,-2.623776220454545
mp-758357,Li3Ti3(PO4)4,-2.855746065714285
mp-29145,H3N,-0.348918901875
mp-763901,NaVO3,-2.332734236275862
mp-19313,Zn(FeO2)2,-1.7450259114285722
mp-977207,Li2Mg,-0.015191076111111002
mp-638226,La2Ga12Pd,-0.509811669333333
mp-10379,Hf3(Cu2Ge)2,-0.43490060777777806
mp-690136,Mg4Al3(HO)17,-1.9878308838109762
mp-758224,Li3Sn2(PO4)3,-2.469230876071427
mp-753960,Li2H2SeO5,-1.659069621151041
mp-972808,SiO2,-3.265169314166667
mp-770944,Li4Co2C4SO16,-1.83486214521605
mp-780294,Li3Mn2Fe(BO3)3,-2.4495083957423383
mp-555548,MgAlPO5,-3.150440260267856
mp-10166,NaAlSe2,-1.20822018078125
mp-744474,Mo2P4O15,-1.5903019744557811
mp-756909,TlGaO3,-1.6151248681666681
mp-861882,LiGeIr2,-0.41238339958333103
mp-1076,KB6,-0.08032315410714301
mp-22156,Hf2InC,-0.838084438749998
mp-10138,Y(BRu)4,-0.48778546685185104
mp-770608,Li3Mn3O8,-1.977158775985222
mp-767363,Li3Mn2(FeO4)2,-1.919784785057472
mp-569320,Sm3Ge5,-0.7435294250000011
mp-2243,NbS,-1.13542374875
mp-978823,SmY3,0.073487389999996
mp-32688,Nd2Se3,-2.191013233687499
mp-1306,ThAl3,-0.43703121999999706
mp-974883,Rb3Na,0.047302559030172005
mp-11512,LiAl2Ir,-0.8143778916666691
mp-16560,KEr2CuSe4,-1.725518047078123
mp-17129,Sr3(AlN2)2,-1.232596961666667
mp-976870,NaNi3,0.51746655836207
mp-567940,RbPr6(CI6)2,-1.514256928928571
mp-540701,V3As2,-0.605266699999998
mp-773504,V3Sb2(PO4)6,-2.404813941653062
mp-28041,Pb9(Br5O2)2,-1.388803789130432
mp-757547,Li2Sn3(P2O7)2,-2.415673509358177
mp-12651,MgPt,-0.696493014999997
mp-568121,Mn4Si7,-0.28320931231191304
mp-865019,HfGaRh2,-0.8941999968749931
mp-3009,Rb2BeF4,-3.309062653214286
mp-8377,TeO2,-1.4950600038888862
mp-625367,LuHO2,-3.051509620729167
mp-571491,HoB6,-0.43957197857142805
mp-7045,RbGdS2,-2.096890640624998
mp-778616,VO2F,-2.437020199375
mp-10436,Tb(AlSi)2,-0.42367822599999905
mp-550579,ScTa(PbO3)2,-2.765637124233333
mp-684989,W9C4,-0.022551838461534003
mp-541483,Rb3Sc(HO)6,-1.8427801062500002
mp-697833,SrLaFeRuO6,-2.4897066370000003
mp-631345,KZr2Nb,1.006227499249998
mp-558632,KNaSO4,-2.224053861589901
mp-720509,Li10Si(PS6)2,-1.24362323450476
mp-558314,TaBi4ClO8,-2.056218159095238
mp-18857,Sr2FeMoO6,-2.531505224999999
mp-569855,MoCl5,-0.9356376972916671
mp-779315,VOF,-2.801236137916667
mp-1009082,MgSnAs2,-0.29875055
mp-980014,TmTh3,0.042858102500012006
mp-862725,ScTc2W,-0.230808796249998
mp-631619,KCaNi2,0.6426552056875
mp-762401,LiCo(CO3)2,-1.638923201833333
mp-6252,Sr2CuTeO6,-2.211730652666666
mp-677283,Sr4NdNb2Al3O15,-3.410130186900001
mp-21080,La(NiSn)2,-0.516585293
mp-977408,NbTlO3,-2.362471505666668
mp-18217,K3AlSe3,-1.3819342316116061
mp-30864,Y2Sn5Rh3,-0.7027724590000001
mp-12580,Li2CdSn,-0.311749965416665
mp-861873,TaTlO3,-2.576722779133334
mp-22256,NdMnSi,-0.5486250432806461
mp-23062,YCI,-0.9699799549999991
mp-849937,Na3NiO3,-1.280432398805418
mp-769589,LiV3CrO8,-2.376552819102564
mp-15988,Li2CuSb,-0.48556522833333204
mp-560671,Rb2NaVF6,-3.166100738637932
mp-979043,Tm2CoCu,-0.238332755000003
mp-541951,Zr3P3Pd4,-1.042091269642856
mp-779299,Li3Mn4(BO3)4,-2.461290566016991
mp-556097,NaLi2(RuO2)6,-1.510417942764094
mp-28695,KSiH3,-0.188028735
mp-1005753,Sm2AlGe6,-0.43846334944444404
mp-554282,Lu3B5O12,-3.383382150041666
mp-19281,LaCrO3,-3.1966233445
mp-8002,LiGaO2,-2.312702965208333
mp-561382,NbBi4BrO8,-2.018850385000001
mp-19111,NaV2O5,-2.388867103297414
mp-9514,Mg(AlC)2,-0.055014741000000006
mp-570723,La5Si5I3,-1.090921322692306
mp-20821,NpGa3,-0.195459952812502
mp-14985,KZrPdF7,-3.069404104975
mp-974057,Lu2Ni12P7,-0.764713063611111
mp-22419,NdSnPd,-0.9130349186111111
mp-863062,LiSiBiO4,-2.485249654047619
mp-676320,In4(SnO4)3,-2.008880134035087
mp-504371,LiNi6P7O24,-2.278997002127193
mp-961705,TiPtPb,-0.14813270055556402
mp-20516,InPt3,-0.439939247499999
mp-973956,Lu2CdAg,-0.34641017958333004
mp-11101,LuInRh,-0.8486995397222181
mp-742,Ti2Cu,-0.11303320444444301
mp-535,Fe4N,-0.056231034999999006
mp-540033,LiMnP2O7,-2.532984701186371
mp-752793,Li2AgF3,-2.398338243888886
mp-974690,Rb2CuCl4,-1.681490217857142
mp-27331,K3GeTe3,-0.975083446678569
mp-774297,Li3MnV(PO4)3,-2.636041077092979
mp-556275,Rb2Al2Sb2O7,-2.527796269230769
mp-6699,NaMgPO4,-2.867772388598404
mp-774368,Li6Mn5Fe(BO3)6,-2.480752229295976
mp-757490,LiSnPO4,-2.394530838282312
mp-691117,SrLaTiMnO6,-3.261345454626437
mp-568060,Na4Ge2Te5,-0.716831445227274
mp-567471,HgI2,-0.564044371041667
mp-680486,W6CCl16,-0.8515543645652061
mp-999540,MnSe,-0.949901936772628
mp-754323,TmBiO3,-2.835879719000002
mp-18685,SrCu2GeS4,-1.043014072708333
mp-30099,PdSCl,-0.45975948670138606
mp-756213,Li8BiS6,-1.251108146777777
mp-28968,Nb3Te3As,-0.726494643214278
mp-31277,Sn4Ir,-0.159459893500002
mp-3201,Li2GaPd,-0.556428800833332
mp-758527,K3ErSi3(HO5)2,-2.859767565355263
mp-8430,KLiS,-1.381854906027777
mp-774883,LiFe3(SnS4)2,-0.730193594523808
mp-567838,La2AlNi9H,-0.359564733173077
mp-979953,Yb3Ta,0.27376879941666404
mp-6078,Na2Cd3Si3O10,-2.483071516264368
mp-569577,Tb(SiAu)2,-0.565424515333332
mp-24237,ScH2,-0.7380941941666671
mp-757914,Li3Ti2(PO4)3,-2.833888380779762
mp-28810,Na2CS3,-0.5927766416145831
mp-772661,Li4MnSn3(PO4)4,-2.449124310886993
mp-22752,FeSn2,0.012180615
mp-774336,Li3BiS3,-1.103540275714285
mp-758145,LiTiP2O7,-2.819763389177488
mp-4703,Th(Al2Fe)4,-0.408202123846154
mp-2034,W2C,-0.036910777500002004
mp-5146,Zn(RhO2)2,-1.30145586428571
mp-3297,Li10Zn4O9,-1.991919412536232
mp-977218,Li2Mg,-0.016993802777777
mp-864968,MnInRh2,-0.553888846120688
mp-27333,Tl3CoCl5,-1.225850265555558
mp-765222,LiSn3(P3O10)2,-2.433993185206349
mp-698710,Sr4La4Mn7CuO24,-2.68198278763793
mp-25433,TiO2,-3.349036991111111
mp-22267,Y(MnGe)6,-0.316371490583555
mp-765679,Na5(NiO2)6,-1.264992766386805
mp-27370,P10Au7I,-0.14371069952380802
mp-555123,KMnF3,-3.014391749036205
mp-20824,Sr2CaTlCu2O7,-2.044442910641026
mp-560240,K2SbPO6,-2.397861930414285
mp-21623,ThFe5P3,-0.713500568492062
mp-11488,LaTl,-0.41793559416666903
mp-753940,KLiMnS2,-1.230994826702873
mp-707324,PH6SN3,-0.513762547581168
mp-3346,HoZrSb,-0.9094038216666671
mp-755465,Hg2Pt2O7,-0.8439466536363641
mp-30712,Sm2Zn17,-0.262779661052629
mp-989529,KRb2InCl6,-1.9947973678916662
mp-20277,RbEuO2,-2.531090263125001
mp-27195,In4Bi2S9,-0.6317526160208331
mp-11114,KCuPdSe5,-0.715435133621094
mp-762511,LiFe2C2O7,-1.783655144861111
mp-753363,Li4Sb(TeO4)3,-1.792411126666667
mp-569095,Rb3Bi,-0.319145695624999
mp-5512,Sr4Al14O25,-3.461146685581395
mp-975442,NdErIn2,-0.5839707902083291
mp-763316,Mn3O5F,-1.946565402088122
mp-866138,LuSbRu2,-0.520204601666665
mp-672314,Mg3In,0.16688004583333302
mp-574684,Na2SnAs2,-0.33856563105172405
mp-1013537,Sr3AsN,0.11122313774999901
mp-982243,Y3Sn,-0.37443234874999903
mp-675437,GaGeS4,-0.577787824583332
mp-33537,Fe2MoO4,-1.634722320714285
mp-972882,Sc2CdAg,-0.28327863624999905
mp-705116,Sr2MnMoO6,-2.642469655793103
mp-863066,Ta6Pb4O19,-2.894931043931035
mp-861995,PaNi2Sn,-0.391738926249998
mp-764593,Li3Fe3OF7,-2.633502947142857
mp-557411,KRb2VF6,-3.152215331225002
mp-30923,Ga5Rh3,-0.597840527187498
mp-761608,Li2CoNiO4,-1.549160832708333
mp-4808,NdAgSn,-0.618603359722223
mp-1013795,Li3Ge3(MoO6)2,-2.096992368250001
mp-616228,Te4WCl6,-0.5802986790151501
mp-8260,NaGdS2,-2.086529238906248
mp-767981,NiOF2,-1.584030741249999
mp-570125,Hg2TeBr3,-0.7323322640277781
mp-7457,SnF2,-2.370105079166668
mp-30284,HgAsO3,-1.362179759999999
mp-27275,Li3BO3,-2.5554420863095233
mp-31080,YAlSi,-0.6686579583333341
mp-2536,Ni2B,-0.28265351916666603
mp-631412,NbRu2Cl,0.5135378475000001
mp-1020107,LiCaAl3N4,-1.347443300648148
mp-20244,ZrPbS3,-1.4198335714999981
mp-559336,NaNb3(TeO4)4,-2.233152925543582
mp-759455,LiSbP2O7,-2.4596389354653683
mp-19957,LaGeBO5,-3.003877321354167
mp-30581,Hf2Cu,-0.159939316666665
mp-754480,GdYO2,-3.197924765
mp-23098,ReNClF5,-1.9333004884375011
mp-569675,Tl2Hg2PdCl8,-1.100098677051284
mp-862918,PmHoMg2,-0.071573295624998
mp-4579,LaSiRu,-0.779176084999998
mp-849229,H5NO5,-1.106458521477272
mp-849485,Mn12O7F17,-2.552579198199234
mp-22131,SmGa4Co,-0.500909794999998
mp-632760,Na2H6PtO6,-1.378333068017241
mp-29411,Na2B2S5,-0.970611633176882
mp-754578,TmGaO3,-3.158924132000001
mp-945,NiPt,-0.095115924999998
mp-2451,YAl3,-0.46262733500000003
mp-720817,MgAsH15O11,-1.465185349151785
mp-8075,NaBe4SbO7,-2.709880308567638
mp-862887,LiSc2Os,-0.33092544833333004
mp-972400,TmBiPd2,-0.799436512499994
mp-761952,Li5Sb(P2O7)2,-2.587881458134919
mp-775175,LiVFeO4,-2.178292596190476
mp-781614,V6O7F5,-2.751182826666666
mp-768615,Sr3La2Cl12,-2.686981179999993
mp-1172,MgRh,-0.4497744375
mp-10098,YGeAu,-0.9297520466666681
mp-626528,NbHO3,-2.46286384725
mp-28707,PrNb5O14,-3.150024095833332
mp-8418,ZrCoP,-1.141841871547616
mp-649950,RuC3Br2O3,-1.040393923333332
mp-30386,HoAu3,-0.789885005000002
mp-555791,SiO2,-3.226541421736111
mp-560629,K3Al2(PO4)3,-2.937700390033927
mp-867750,Ti3PO7,-3.078507964512987
mp-755462,PrHfO3,-3.538281837833332
mp-770638,Li2CoH12(SO7)2,-1.539531480537633
mp-14430,Sr2YRuO6,-2.842278018
mp-11571,YSn3,-0.42316383375000105
mp-758573,H16Ru3C6(Cl3O7)2,-1.146438905777778
mp-510188,HfGa,-0.578133401250004
mp-974430,Re3Ir,-0.09152194687499801
mp-972380,Tb3ReB7,-0.6626999727272721
mp-22566,TlInS2,-0.7748982481250011
mp-571309,Nd12C6I17,-1.331748449285712
mp-505515,Sr(CuSb)2,-0.514049587
mp-781684,LiNiH12(SO7)2,-1.4479259247777772
mp-601820,Fe3Co,-0.041613642499999
mp-654139,Nd2Ti4O11,-3.655330315490194
mp-21290,HoInPt,-0.986927420555555
mp-865081,NaAcTe2,-1.513576809374996
mp-22634,K4SrU3O12,-3.2563449314499993
mp-4675,NaTaO3,-3.053653402742529
mp-625151,H7ClO3,-1.219445966249999
mp-973831,LiHoPd2,-0.72152507914393
mp-20764,YbCeSe3,-2.189161334437503
mp-679979,La9B3C6I5,-0.868587549891305
mp-764052,VOF,-2.801438299166667
mp-1018159,ErSb2,-0.40617561111111405
mp-703459,H2O,-1.278919780277777
mp-1689,HfRe2,-0.39403369750000805
mp-775016,MnCr(PO4)2,-2.496907458934727
mp-559598,LiScF4,-3.84240384824074
mp-559613,K6Se2O9,-1.7229617032757352
mp-560578,RbTeNO3F4,-1.9631787174166662
mp-2393,YTl3,-0.300890697500001
mp-849476,Li17Ag12F29,-2.223470288333332
mp-28326,LiGaBr4,-1.455603496805555
mp-978506,SmSiO3,-2.8364629000000012
mp-773325,Li2V3O8,-2.4023160945512823
mp-1013541,Sr3SbAs,-0.475638621499999
mp-1009734,RhN,0.334703842500001
mp-573877,Tm3(CuSn)4,-0.32788265000000205
mp-973451,Nd2BiO2,-2.850434975000001
mp-761185,KPH3O4F,-2.136675501064285
mp-867831,DyMgRh2,-0.7065420116666641
mp-567908,Lu4B3C4,-0.526427164924241
mp-20462,U3Co4Ge7,-0.335672987499999
mp-644325,CsFeSiO4,-2.50584825387931
mp-865100,NaInHg2,-0.21082085125000202
mp-9660,Sr2Cu(BO3)2,-2.782948522575758
mp-972511,Sm2AgSn,-0.525067704166666
mp-1748,NdS,-2.2970675451562492
mp-19497,Na5Y(MoO4)4,-2.326705938919099
mp-5438,TmBRh3,-0.822294699833335
mp-865428,UP3,-0.612119633482144
mp-978095,Pr2CdPb,-0.580303501708321
mp-1019803,KAl9O14,-3.354464808010416
mp-867115,LiCd2Rh,-0.283306771666666
mp-13079,Mn2AlCo,-0.272630423965517
mp-1018755,LaTlZn,-0.36004131444444704
mp-715617,V6O13,-2.373788130263159
mp-7420,KHgAs,-0.339321662416669
mp-16945,Sr3(GaN2)2,-0.7975283000000011
mp-975666,PrBrO,-3.255380888888891
mp-38684,Li2MgCl4,-2.181143846666666
mp-29890,Th2AuF11,-3.5900266949999953
mp-684093,LiBi(PO3)4,-2.51958831635582
mp-557743,KCaAl2F9,-3.8587544829935903
mp-1190,ZnSe,-0.9515610311718761
mp-541283,InGaBr4,-1.18625159736111
mp-21598,SiNi2As,-0.3795481484375
mp-567348,TmInPd2,-0.8462060066666681
mp-2119,TbC2,-0.36907816999999904
mp-649213,Th6FeBr15,-1.933803347045453
mp-29153,Zr2NiP,-0.9918962599107141
mp-642157,V2Cu3Pb(ClO4)2,-1.566172843125
mp-4536,ScNi2Sn,-0.551673157499999
mp-864766,NaMgSO4F,-2.595141264859913
mp-978911,TbYHg2,-0.590041426250003
mp-864633,Nd2SnHg,-0.600628073125
mp-866637,KPPdS4,-0.9264578699132641
mp-771580,Li4Fe3TeO8,-1.755462522499999
mp-699636,KTb2Cu(MoO4)4,-2.392738386274306
mp-3446,SrTm2O4,-3.805543114285714
mp-765090,LiMnF3,-2.946795917252873
mp-1008,NiHg,0.21853056750000002
mp-973342,SbRh3,-0.2760436525
mp-9212,NaAlO2,-2.929171832219827
mp-6126,LiCdBO3,-2.30400035625
mp-581857,KBiF4,-2.849412673708334
mp-721,TbCd,-0.29982172833333104
mp-30933,ZrBi,-0.373875650833339
mp-718,SnPd3,-0.4929071675
mp-781081,VOF3,-2.690260535
mp-557059,RbSnS4,-0.9107632413541661
mp-3267,TlSb5S8,-0.5558374123809511
mp-770370,V3BO6,-2.623515272916665
mp-1028,V3Te4,-0.559394049523812
mp-697726,Li2CoP2O7,-2.494363203412698
mp-767011,Li7Mn3(SiO6)2,-2.427310479463601
mp-974638,NdErZn2,-0.324655066875
mp-758632,NaH2C2N3O,-0.6461415845051081
mp-510306,Sc2CrB6,-0.775363024166667
mp-541070,Ta2NiSe5,-1.024910418923164
mp-780325,LiMnSiO4,-2.614034141609195
mp-756297,ZnIn2O4,-1.9064492869047611
mp-769615,Li4V3CrO8,-2.461423570208333
mp-2927,LiAg2Sn,-0.23047338291666503
mp-776630,V2O3,-2.473903667000001
mp-9407,Nb3SnS6,-1.328629548000002
mp-690866,LiMnPO4,-2.584075765843889
mp-697945,K2CdH4(SeO5)2,-1.4936439825888161
mp-26342,SbP2O7,-2.352745636928571
mp-29020,P4SeO6,-1.84174718621956
mp-776680,TiMn2Ni3(PO4)6,-2.314437059918125
mp-1038,MgCu2,-0.12408862500000101
mp-23574,SbPCl8O,-1.3765291365584411
mp-7825,K2GeF6,-3.034860290499997
mp-999293,PdN,0.6633635575000001
mp-761765,Li3Mn3SiO8,-2.323324132586207
mp-554781,Tb3CuSnS7,-1.7123762989583322
mp-976823,LaPm3,0.029313474374998004
mp-542443,TlCr3S5,-0.9480949884259261
mp-697764,LiFeP2O7,-2.5044151677380952
mp-562137,KLiCO3,-2.189372252597222
mp-754455,Sc2O3,-3.8714628999999983
mp-568449,Sm2AlGe3,-0.6611674995833331
mp-505429,Th(Re2Si)2,-0.483742805714285
mp-5429,Tb(SiOs)2,-0.818289616000004
mp-30731,HoSnPd2,-0.8814031375000051
mp-601292,RbPrP3HO10,-2.802417740896578
mp-16684,PrCuS2,-1.593449684322916
mp-570751,Nb3Te,-0.26327545291666604
mp-764021,NaMn2O4,-1.9176881603201972
mp-567389,Li2ZnGe,-0.23801389791666602
mp-772617,Zn(NO3)2,-0.9987428158333331
mp-556084,KClO3,-1.14875320695
mp-669720,Ni3Sn2,-0.26081920550000004
mp-30871,Ta3Sn,-0.07652924300000301
mp-19890,URe2,-0.00027019333333300004
mp-30826,Pd13Pb9,-0.260624321846586
mp-17986,TiTl2O3,-2.254204047916664
mp-779766,Ni2(SO4)3,-1.557071324264705
mp-582753,Tl2Te,-0.434993182323239
mp-767774,Mn2Fe3Cu(PO4)6,-2.237974545103311
mp-570631,U(FeP)2,-0.792370403857076