material_id,formula,formation_energy
mp-556654,SiO2,-3.260776771666666
mp-570536,Rb2AgAu3I8,-0.758084205476187
mp-763177,Li2VO2F,-2.622007079861111
mp-770409,Tm2GeO5,-3.401640424375009
mp-769534,Na3Mn2P2(CO7)2,-2.23453640431677
mp-27303,NaAg3O2,-0.7057765477298831
mp-3289,LaMgNi4,-0.30678034666666504
mp-16855,K3Ta3Si2O13,-3.154895519940477
mp-555311,ZnS,-0.96197231390625
mp-758157,Na4H2RuN6O13,-1.165131195500663
mp-707703,Th8Al4H11,-0.5112293901992631
mp-773020,LuP5O14,-2.815191109369047
mp-569547,Sr6FeC2N7,-0.8416960934375011
mp-6425,Li3In2(PO4)3,-2.5862366378630943
mp-19202,MgCr2O4,-2.6289158835714233
mp-770361,LiV2BO5,-2.624064152500002
mp-31961,LiMn2(PO3)5,-2.5808895511917243
mp-769611,Li4V3CrO8,-2.467459280520833
mp-774388,V4(OF3)3,-2.9546066250000003
mp-776966,Sn2N2O,-0.581431389249999
mp-697030,Mg2H6Ru,-0.438372025277776
mp-557512,LaH4C4NO8,-1.692131980833334
mp-684010,K8Ti5P2(O4F11)2,-3.413051621810053
mp-772318,Li2Cr2O7,-1.8476339665151502
mp-18449,K2ZrO3,-2.7781002186666672
mp-19335,KCr3O8,-1.942798178520831
mp-4779,Li2B4O7,-2.8050073281410253
mp-24729,RbGa2P2H5O11,-2.117686732287414
mp-7276,ScUS3,-2.0712849946875
mp-3241,Sr(CuGe)2,-0.36623066799999704
mp-764048,Li4Fe2Ni3Sb3O16,-1.799107586904762
mp-5455,K6Ti2O7,-2.5439347390111102
mp-720432,Na2Ca9NdY5HoF41,-4.2180058785310734
mp-531952,KW3Br7,-1.065319400545453
mp-776813,LiMnF4,-2.915867414377394
mp-505271,Ni(SbO3)2,-1.7959548794444422
mp-19522,P2W2O11,-2.383806170785705
mp-570558,Rb2NbCl6,-2.021572967222223
mp-14824,Sr2HoCu3(PbO4)2,-2.068203139062499
mp-14628,ZnSnO3,-1.925918267999999
mp-554432,ReSbOF10,-2.536002920961539
mp-974758,Rb3Tl,0.06328764104166401
mp-28748,Y3IrI3,-1.301610605714284
mp-30415,PrAu2,-0.756491362222221
mp-4764,Pr2SeO2,-3.343554011135414
mp-771611,Li5V4O8,-2.340222715686275
mp-677416,Na5Mg5In3(SO4)12,-2.201767682697212
mp-560129,Na3La2(BO3)3,-3.021893579213996
mp-771047,Mn(IO3)2,-1.12431370532567
mp-560843,Na4Zr2Ti(CO4)4,-2.590579435142614
mp-12635,TiAu4,-0.311209871333329
mp-570276,ZrZn,-0.326053845
mp-976138,PrDy3,0.046117740833338
mp-32891,Y2S3,-2.346931513937499
mp-867198,LiGaPd2,-0.704696346666665
mp-560995,Y(IO3)3,-1.478612512692308
mp-24097,Mg3Si2H4O9,-2.586002241666667
mp-27281,LiH3O2,-1.535539436180555
mp-768613,Zr(MnSn)6,-0.106719355198939
mp-569480,URe2,-0.016571293333332
mp-11147,Na5CuSO2,-1.315347740488505
mp-18471,Sr2UO5,-3.614562601875001
mp-975651,PrTm3,0.011011798333328
mp-764935,Li(CoO2)2,-1.435524667619047
mp-5899,NdAlO3,-3.672470181499999
mp-172,Nd5Ge4,-0.9400446680555521
mp-13985,Li2PdF6,-2.285658211481482
mp-699008,Rb2MnV2(ClO3)2,-2.037933277533156
mp-560919,Na5Y(CO3)4,-2.295381612245299
mp-676280,NaTaO3,-2.967343368242528
mp-790062,V5Sn(PO4)6,-2.592033532301588
mp-600171,ZnH8C4(N4Cl)2,-0.440475598369564
mp-775136,Li4Cr3Co3(TeO8)2,-1.901252590952379
mp-6917,TmAgSn,-0.5470716238888871
mp-573498,Yb(AlGa)2,-0.37132920699999905
mp-766506,Li3CuS2,-1.1922166877083331
mp-767218,Li9(NbS2)14,-1.529307293921569
mp-768163,Li7(SbS)2,-1.011135983484848
mp-975904,Li3Cd,-0.18138230499999902
mp-4169,USiO4,-3.4544520449999983
mp-143,Tm,0.0
mp-2322,YAl2,-0.5829048933333331
mp-27519,SeO3,-0.874017667773437
mp-998949,TiPt,-1.003696203333333
mp-755404,Gd3SbO7,-3.36258486090909
mp-696315,NaHNO2,-1.117524571525862
mp-11241,DyAu2,-0.8639723905555521
mp-757734,LiNbPO5,-2.758614480684523
mp-29724,Ni20(SnB2)3,-0.27080655758620603
mp-781014,LiVP2HO8,-2.478341137989927
mp-975467,Mn3Hg,0.42767778780172305
mp-774314,Ti3MnV2(PO4)6,-2.862100900438559
mp-752641,Lu3TaO7,-3.861680084757576
mp-675460,LiTiCl3,-1.612737931958329
mp-24721,RbH,-0.235469759374999
mp-21417,Eu(GeRu)2,-0.6101206650000021
mp-772436,Li2AlFeO4,-2.429174429114582
mp-771238,Y2TeO6,-2.9609302587962962
mp-23265,GdCl3,-2.506313930624998
mp-976331,LiLuO3,-2.192363090999999
mp-621362,NdInAu,-0.726908476944446
mp-759406,Li3Sb(PO4)2,-2.495587587270407
mp-643708,LiH2IO,-1.343059262166666
mp-1660,ErZn,-0.39338106916666504
mp-778633,LiMnF3,-2.9797079485862072
mp-18755,NdMnSbO,-1.777319990107758
mp-754269,Nd3SbO7,-3.300930162045453
mp-753795,Li3BiO3,-1.867336972142858
mp-20649,Y(MnGe)2,-0.479865997172407
mp-779889,Li5FeO4,-1.953934427666666
mp-765499,Li3VF6,-3.125503323
mp-17161,K6CdO4,-1.336884909863634
mp-760539,Li2Ti3O6,-3.084737700606061
mp-5472,Nb2Cd2O7,-2.4543342922727263
mp-8973,NaSi2N3,-1.2553983302083331
mp-767419,NaPH2OF6,-2.545200571683833
mp-849460,Mn2OF3,-2.6059085476436783
mp-27767,Li6Si2O7,-2.742996080333333
mp-774753,Li5GaO4,-2.182946323416666
mp-2045,Tb4Sb3,-1.181716515000001
mp-11397,Ga3Ni2,-0.42378557400000005
mp-768702,Ta2Zn4O9,-2.465044959977778
mp-754757,SbRhO4,-1.5651373466666652
mp-13430,Nd2AlCo2,-0.200198415151515
mp-977537,ZrCdRh2,-0.691710256249997
mp-9545,Tm2C3,-0.45705526106000305
mp-556405,LaCN2F,-1.921112189
mp-980049,Yb3Re,0.156936513124996
mp-773751,Fe3(OF2)2,-2.188255453333333
mp-975322,RbFeO3,-1.164507126499999
mp-977430,MgNbRu2,-0.254914421249999
mp-975665,Nd(Ge3Pt)4,-0.383006174558822
mp-695434,Li7Zr3Nb(TeO6)4,-2.429331326923077
mp-973217,SbSI,-0.585859787499996
mp-569824,Te2WCl6,-0.7118415487037041
mp-755821,Li5Cu(PO4)2,-2.525703097247024
mp-977544,Hf2ReNi,-0.43036534062500004
mp-8994,Rb2NbF6,-3.235412826111109
mp-675556,Er2Zr8O19,-3.769287183965517
mp-569073,LiSn,-0.325866989166666
mp-30662,Zn3Ga4Pd7,-0.6062750799999991
mp-705329,Li3Fe2(PO4)3,-2.479199616196427
mp-676517,La3U2O10,-3.897531602333331
mp-569782,Sr2LiCBr3N2,-1.719934015370371
mp-5591,U(NiGe)2,-0.345739845999997
mp-610190,Zr9(In2Co)7,-0.347916985833334
mp-569115,Li2ZnGe,-0.339618136666666
mp-697575,Rb2ZnH4,-0.323759389642856
mp-974221,HoErTl2,-0.30947066541667
mp-867761,Sc2CoRu,-0.471301969999999
mp-27764,K4I2O9,-1.4201798019333332
mp-27927,NbAlO4,-3.226094881666666
mp-1217,KSi,-0.13730727343750002
mp-669684,U3Se5,-1.453746750527338
mp-11270,MnBe2,-0.250302259310346
mp-22401,Nd2Re3Si5,-0.526917885250003
mp-861672,Ti2FeIr,-0.667715469166665
mp-850883,Fe4O5F3,-1.844559482499999
mp-11012,Sr(BS2)2,-1.2252974364285691
mp-27417,Li3InO3,-2.051196499166667
mp-863704,Pm2MgTl,-0.24919348333333602
mp-640039,Pu2InRh2,-0.321616743833327
mp-772030,LiTiO2,-2.9679836047916672
mp-618968,UMoO5,-2.870027866785713
mp-28016,Li4Ge9O20,-2.159405572676768
mp-19917,ZrSiTe,-0.898553528333335
mp-28955,Mg3BN3,-1.045983382857143
mp-17062,Dy2Si2O7,-3.660100550303029
mp-7924,Li2Sn5,-0.18156278523809502
mp-972395,TmBeO3,-2.8847607240000013
mp-23598,SIO3F,-1.497494278749999
mp-769881,Li3CrF6,-3.114861293
mp-680498,RbTaPS6,-1.086471906955687
mp-626778,NaHO,-1.543234466709769
mp-1002230,PuBi,-0.6416695118750081
mp-21012,Si3Rh5,-0.768347834999996
mp-680682,K3Ga13,-0.151806064796874
mp-20596,U(SiNi)2,-0.547429825999996
mp-23671,LaNi5H7,-0.31939383144230704
mp-767358,MnV3Sb2(PO4)6,-2.4798198590496723
mp-19089,UCoO4,-2.699018927499999
mp-2030,RuS2,-0.687351060208333
mp-20180,Mn3GeC,-0.057280646758621004
mp-643427,MnH2SO5,-1.804435337547893
mp-779590,La3PO7,-3.7011299639069293
mp-757276,Li3Ti2(PO4)3,-2.858399894279762
mp-685295,Sr22Nb10O47,-3.144529216898734
mp-3833,Mg(AlSi)2,0.027314072999999002
mp-654051,Nb6SI9,-0.8079748401562491
mp-759876,Na5SbO5,-1.841294021990595
mp-754308,Li3Cu3(PO4)2,-2.067520114330356
mp-769614,Li4V3CrO8,-2.461727019270833
mp-690772,V5S8,-1.24740896076923
mp-9499,Sm2C(NO)2,-2.417075170714286
mp-759640,LiCuCO3,-1.6533590126388882
mp-34412,Sr(La2Se3)4,-2.329037291607154
mp-13199,Zn3TeO6,-1.699591537
mp-559376,Na2CaPO4F,-3.027008469989053
mp-568629,YbAg,-0.32611327374999904
mp-773444,MgV3O7,-2.563500954772728
mp-775539,K11Mn4O16,-1.7792000906927141
mp-32120,Mo3(PO4)4,-2.397028686024845
mp-13092,Zr6Al2Ni,-0.34655779000000003
mp-22260,Y(MnSn)6,-0.13877085135278502
mp-768996,NaBiAsCO7,-1.7091006135344822
mp-981511,Y3SbO7,-3.391358489545456
mp-760804,Li2AgF4,-2.315456425833336
mp-781106,Li32Mn5Cr11O48,-2.1992142701700192
mp-997099,PdAuO2,-0.5733655737500001
mp-505302,U5Ge4,-0.24669503980554602
mp-17298,SrTi4(PO4)6,-3.104235324319727
mp-3166,Th(SiOs)2,-0.850743800000003
mp-753772,Nd4O3F7,-4.030064715
mp-15812,Mn3Mo3C,-0.10592762513547001
mp-975427,RbAlO3,-1.9253732725
mp-972093,Tm(Mg4Al3)4,-0.05131340379310301
mp-21227,U3TiSb5,-0.689568598518519
mp-510727,InTeO3F,-1.9819791672222222
mp-36912,Pr2CdS4,-1.814673069583331
mp-676563,Ta4Cu2O11,-2.818716448490194
mp-1018825,NdPbAu,-0.572041882499998
mp-781757,TaNbO5,-3.141112710333333
mp-31507,Sb2Te4Pb,-0.44358547666666703
mp-28043,Tl3AgI5,-0.6947896671296311
mp-643259,Li4H3ClO3,-1.854647198371211
mp-3207,Sr(NiGe)2,-0.50936324
mp-570287,Ta5Si3,-0.5982069858333291
mp-776683,Li3FeF5,-2.860132304027778
mp-2170,Li2Pt,-0.5886431711111111
mp-9295,TaCu3Te4,-0.47451112924999705
mp-974326,OsRu3,-0.009306451250004
mp-672231,La3Ge3Br2,-1.385207759999999
mp-11200,LaMg2Ni,-0.23501697250000003
mp-1235,TiIr,-0.8576200016666671
mp-638150,KPPbS4,-0.9550719866989771
mp-757996,LiTi(PO3)4,-2.701590771957672
mp-560613,Na2TeO4,-1.809108187596468
mp-20285,NaPt3O4,-1.072463333297405
mp-771833,Sr2LaCl7,-2.657430152999998
mp-753798,Rb2SnO3,-1.923212555000001
mp-545529,NdBi2ClO4,-2.4068132021875
mp-760133,Li6Ag3F10,-2.377792166447371
mp-976220,NaCdHg2,-0.15367882409483102
mp-505286,Rb2NaFe(CN)6,-0.24330486883620603
mp-763975,V2O3F,-2.6312938675
mp-9368,RbTmS2,-2.092722588125001
mp-27469,Th2BiN2,-1.658092117999997
mp-755312,Li5Nb2Cu3O10,-2.153272704333333
mp-8086,Na2Zn2O3,-1.698470631108374
mp-4582,NdRhO3,-2.495162424000007
mp-971733,ZnGaO3,-1.1479751685
mp-976135,PrEr3,0.06619891208332901
mp-864978,Mg2AgAu,-0.425984957916666
mp-615459,La2Ni5C3,-0.2993291005
mp-2459,YbIn,-0.5305468924999981
mp-680415,Os3C10(BrO5)2,-0.669331445799999
mp-976139,Li3Mg,-0.024002206249999002
mp-15670,Y5S7,-2.3785692108072922
mp-1335,VFe,-0.12701183999999902
mp-531980,Tl4Ag18Te11,-0.266013636868689
mp-631379,ZnCuMo,0.9674886666666661
mp-568785,NaAl3NiCl12,-1.839185802139959
mp-777888,LiFeF3,-2.783978277666667
mp-961699,NaMgP,0.133527832992611
mp-755646,LiCuO,-1.337436704444444
mp-867190,Pr4Ge7,-0.785081835606061
mp-675056,Na3(TiS2)10,-1.637074000529431
mp-19158,Mn3WO6,-2.133976629879308
mp-975173,RbYO3,-2.258841818500001
mp-755731,Ta2Pb2O7,-2.696757586787878
mp-676765,Na21In5O15,-1.473063271397532
mp-20088,Na4PbO4,-1.601668832835247
mp-7062,Mg3Al9FeSi5,-0.092182186388888
mp-12022,HgB4O7,-2.412195279930555
mp-769527,Li2MgCo13O28,-1.243824240265152
mp-555303,LiEr(PO3)4,-2.855499115383598
mp-567551,SiC,-0.3058941746875
mp-9763,K2NbCuS4,-1.293870691812499
mp-2251,Li3N,-0.48250142218750003
mp-14128,K2HfF6,-3.727239514388886
mp-557282,Rb2Ce(NO3)6,-1.391113083888888
mp-542136,Na3PSO3,-2.195930683910098
mp-698668,Nb3ZnFe3(O6F)2,-2.320623135238096
mp-762996,FeOF,-2.038216552916667
mp-20316,PPbSe3,-0.411696905532741
mp-30011,SbKrF7,-1.875156090740739
mp-685194,Li4Ti5O12,-3.203121053333332
mp-971901,ZnPb3,0.112074934999995
mp-780175,Li4Fe3P4(HO8)2,-2.357536800841543
mp-757233,Gd2Zr2O7,-3.84645998909091
mp-31108,Pr12InPt7,-0.8540911785833321
mp-554581,KSmP2S7,-1.220218093775973
mp-541856,U3TiGe5,-0.547752477962963
mp-19300,La2MoO6,-3.17774589388889
mp-862900,PmCu2Sn,-0.37142469937500106
mp-696347,NaH3SO5,-1.710808239762931
mp-761809,RbHoHS2O9,-2.241467738839286
mp-560471,Zn2B2PbO6,-2.255461469848484
mp-807,NpTe,-0.7909411877083341
mp-19047,MgMoO4,-2.406204404583332
mp-772753,Li3ZnPCO7,-2.366443226510988
mp-976115,K3Rb,0.037403925187500006
mp-571126,Ti2BRh6,-0.674148221759258
mp-3716,TbNiSb,-0.9653757055555541
mp-29580,Ta9(CoS3)2,-0.9225974977058791
mp-1016842,TiHgO3,-2.118964534166668
mp-17275,SrY2O4,-3.698782460357143
mp-13365,SrZn2,-0.181773925000001
mp-769575,Li6Co5(P2O7)4,-2.449707859939209
mp-776427,ZrO2,-3.752696661666667
mp-17146,K2S5,-0.700578589866071
mp-756009,NaCu3O4,-1.116963513922414
mp-16645,SmMgPt,-0.908393652222216
mp-759763,La26B8O51,-3.713570698333335
mp-760590,Li5(CuO2)3,-1.605298658333333
mp-9586,NbSnS2,-1.108423768749999
mp-757901,LiSnPO4,-2.397845969234693
mp-18892,KBaVO4,-2.775431843535714
mp-1018814,NdSbTe,-1.383587161388881
mp-25449,LiCuPO4,-2.183678110782312
mp-976797,Pm3Sc,0.039683051874998
mp-35647,Zn2PtO4,-1.428108532142876
mp-4041,Yb(AlGe)2,-0.44344837900000306
mp-557861,Li2CaTa2O7,-3.1819678605277772
mp-776642,Li2Fe3F8,-2.684778810897436
mp-568646,Ta3Si,-0.469426434250003
mp-29025,Li5Br2N,-1.160461586458333
mp-771832,Li2Ti3SnO8,-2.909245336904762
mp-989583,Rb2LiInCl6,-1.980378803499999
mp-21309,MgTe(PbO3)2,-1.858674747166666
mp-27241,K2SbCl5,-1.5933208209374992
mp-14542,Y3FeB7,-0.5779453253787861
mp-706976,PH4N(OF)2,-1.7320717742142842
mp-17282,SrTh2Se5,-2.139048075351564
mp-4214,Lu2Fe14B,-0.12474366411764501
mp-20787,FeB,-0.37156264458333205
mp-32590,U4N7,-1.73999297125
mp-20485,InSe,-0.676726512031248
mp-550893,HfO2,-3.936231537499997
mp-10225,NaVS2,-1.245827294094827
mp-770671,Li4Cr5Sn3O16,-2.228600264226191
mp-564,TePd,-0.353706705
mp-770344,Li3V(BO2)5,-2.664956094254385
mp-557231,KTeO2F,-2.089018569449999
mp-1767,Tm2O3,-4.090072903500003
mp-19786,UCoAs2,-0.68611681375
mp-13229,K3GdF6,-3.5581723641750003
mp-759928,K3TbSi3(HO5)2,-2.850949327811403
mp-23145,Na4Al3Si3ClO12,-3.081129688500749
mp-675711,Li(Mo3S4)2,-1.030770542222222
mp-626855,Fe4H14O13,-1.333627648145161
mp-755559,LiNbO3,-2.844351481666666
mp-3553,KTeAu,-0.7731471412499971
mp-1002136,LaAu,-0.8244094650000041
mp-8220,LiTb(CuP)2,-0.912795412103174
mp-776246,Zr2N2O,-2.333294384249998
mp-978962,Tl3Fe,0.599867482499994
mp-3109,UGeTe,-0.6460702688888861
mp-780807,Li2TiCr3O8,-2.501184055357143
mp-774229,Mn2InO5,-1.915702797816092
mp-567318,TlSbSe2,-0.38881093203124806
mp-17559,Y2TiO5,-3.848928632604167
mp-775436,Ti3Fe(PO4)6,-2.707883469054623
mp-555489,LiY6B3O14,-3.566173542743055
mp-721011,Pr20AlSi19N33Cl2O19,-2.268655562801418
mp-862445,TaAlOs2,-0.680675936833338
mp-766258,Y13Tm3O24,-3.977264023500001
mp-21452,Pb3O4,-1.4468076917857111
mp-1018829,NpTe2,-0.9406316990277801
mp-756647,K2YPCO7,-2.776696912011904
mp-3317,SmRhO3,-2.528890301999999
mp-757434,LiSi6Bi9O26,-2.374117398888891
mp-768762,Ho2TeO6,-3.028521803518517
mp-16513,NdAl3,-0.49270663437499806
mp-862670,Sr3Co(CN)3,-0.7141370705
mp-281,YbCo2,-0.22211439166666702
mp-752753,SbO2F,-1.9772322512499991
mp-760755,KAl11O17,-3.372858417146526
mp-776662,LiCrPO4F,-2.680920470684524
mp-676252,Li9(RuO3)10,-1.563673511020408
mp-30183,ZrAl5Ni2,-0.5923647562499791
mp-1008873,MnCoSe,-0.209525096758261
mp-769476,Li6Fe3Cu(PO4)6,-2.385153085696427
mp-779545,Na3CuO2,-1.310521685689654
mp-706983,K3HPtS2(ClO3)2,-1.8298963248666662
mp-555932,RbEr3F10,-4.300691814107142
mp-570923,YRe2,-0.255498969999995
mp-639876,U2SnRh2,-0.466351749999995
mp-849391,InH9(NCl)3,-0.806664719557292
mp-989545,Rb2NaSbCl6,-1.87563242763793
mp-28568,Rb3CuO2,-1.237837759583333
mp-690799,Zr(TiH2)2,-0.524159526190475
mp-766390,Li5BiS4,-1.239109208416666
mp-753853,U4BiO10,-3.400297745333332
mp-764759,Li6Mn5O12,-2.098388264767616
mp-973229,ScNb,0.18642095250000001
mp-560873,Pr3Nb(Cl3O2)2,-3.0560712075
mp-17813,ZrAu4,-0.47588021550000104
mp-18798,Sr2Mn2O5,-2.571303136206898
mp-773167,Mn3CoO8,-1.458310948232759
mp-9628,KCdF3,-2.700995697449999
mp-621624,Tl7Sb2,-0.022725861481485
mp-27233,SrAl,-0.19140256437500003
mp-558281,SrCrF4,-3.543301309999999
mp-779084,LiCr(PO3)3,-2.544184546411564
mp-989630,LaWN3,-1.213674320750001
mp-28932,Sn4OF6,-2.403453935227274
mp-769265,Na6Bi2As(CO4)4,-1.859936077095719
mp-28726,KYF4,-3.993005433060185
mp-24313,ZnH6(CO3)2,-1.298866051166667
mp-36381,Sn(PS3)2,-0.35465750364748705
mp-27552,TlPbI3,-0.8882086816666671
mp-2789,NO2,-0.685685905
mp-757690,LiNb(PO3)4,-2.568119720939153
mp-567692,Y3Ni4B4C3,-0.49913633369047505
mp-865111,NaSmAu2,-0.589452589094826
mp-768909,Sr(IO3)2,-1.520232785277778
mp-38125,Sm2CdSe4,-1.685222844196427
mp-766467,LiCuS,-0.868768357499999
mp-770542,MnP2O7,-2.326701565471675
mp-772151,Li2Ti4O9,-3.284199176666667
mp-977414,ZnCu2SiS4,-0.8001549412499991
mp-644514,MnO2,-1.8225279240325691
mp-28125,H11NF8,-1.593856555312501
mp-10074,GeSe2,-0.5668286598958321
mp-19465,HoCo(BO2)5,-2.873404687254902
mp-721081,KUP(H2O3)3,-2.184265213994047
mp-672984,LiCu(PO3)4,-2.297191900661375
mp-15968,Sm(CoSi)2,-0.7529324309999981
mp-560046,Ta2Pt3S8,-1.050387212666663
mp-977286,Li3Sm,0.208808691249998
mp-675100,Nd2PbSe4,-1.732364408392856
mp-13313,ScTlSe2,-1.4527441607812501
mp-999388,NbC,-0.39708263479167205
mp-697767,LiMoP2O7,-2.547430233419912
mp-772630,Li3V(BO3)2,-2.604614843402778
mp-768160,Li2BiPCO7,-2.272238235525793
mp-11258,TbAu,-0.832824828333327
mp-862658,LiCu3,-0.011274624166665002
mp-23940,NaHO,-1.53440181420977
mp-985582,Li6PS5I,-1.274077549780219
mp-555172,K3Nd3(PS4)4,-1.397803810685438
mp-781646,Tb2TiO5,-3.825951333020834
mp-756290,TbGaO3,-3.125525806333333
mp-734150,Na3YH6(CO4)3,-1.9813855237655171
mp-849464,Li3Mn5(CuO6)2,-1.7989393431661451
mp-765742,Na3V5O10,-2.4005041430076632
mp-615993,SiO2,-3.2553473116666662
mp-2475,SmAg,-0.302441587499998
mp-556236,Na3Ce2C4O12F,-2.5315009622335403
mp-17869,NaCuF3,-2.3130719495
mp-557118,SiO2,-3.253756126666667
mp-28487,Ge5(Te4As)2,-0.271804127555554
mp-977399,LiMgPd2,-0.616924229583331
mp-28094,RbDy2Cl7,-2.684599881583341
mp-555863,P4PtF12,-2.432313209523809
mp-371,La3Tl,-0.238088694583336
mp-989587,K2SBrCl6,-1.119831494699999
mp-561525,K2Ga2B2O7,-2.525803064064103
mp-7483,KHgF3,-2.198555532950001
mp-3088,LaBRh3,-0.6978622008333331
mp-850407,LiMnP(H6O5)2,-1.621044520236289
mp-7640,Sc2Si2O7,-3.522388262272726
mp-865162,MgGeRh2,-0.6094956424999991
mp-24399,MgH10SO9,-1.5790646847619052
mp-569516,HfNi5,-0.31740107499999903
mp-975208,RbRuO3,-1.4384222645
mp-999204,ScAl3,-0.38594177624999904
mp-13525,HoInIr,-0.7019877827777741
mp-680048,RbW3Br7,-1.071260312045453
mp-961723,LiCaRh,0.061849753148147
mp-754825,NaTmO2,-3.210119355344829
mp-1020031,LiCaAlN2,-1.181673299166667
mp-764746,Li5V7O12,-2.379098588194445
mp-759607,LiSb4P7O24,-2.3743836087731482
mp-1019894,La4B10O21,-3.2294259009047632
mp-2340,Na2O2,-1.2980963948563211
mp-18253,SrGa4O7,-2.502236169583332
mp-559711,Rb2Na2SiO4,-2.329949241139846
mp-23283,Sm4Bi3,-0.9656434100000001
mp-561492,ZnSb2(XeF4)6,-1.647349954545454
mp-554034,KLa2NbO6,-3.424929380225
mp-580931,MgZn5,-0.037178825416666006
mp-777887,Li3VF5,-3.009707482407407
mp-554107,K2Na4Ge2O7,-2.047090779834482
mp-22791,TlInTe2,-0.570600623333335
mp-978849,Sm3Mg,0.017494587499998
mp-23711,MgH2,-0.28084348333333303
mp-15415,K2GaAs2,-0.47799325940000004
mp-1363,Na2Au,-0.297318376666666
mp-30447,Sr9Cd4Bi9,-0.708730272272729
mp-571581,SmSnPd,-0.917127909999999
mp-973019,LiSm(CuP)2,-0.7995634929365071
mp-568431,Nd6Fe13Sb,-0.130794547999998
mp-19886,ThSnPt,-1.192033330000005
mp-774302,TiMn3O8,-2.139887115385537
mp-558046,KMnF3,-3.015730156536206
mp-770462,La2Bi2O7,-2.595721497272728
mp-765948,Li4Nb3Cr2Fe3O16,-2.386636731904762
mp-561377,K4Mn3F12,-2.979317092515415
mp-34081,NaYF4,-3.9836949875
mp-865536,YbZrRh2,-0.9400299199999971
mp-752881,Li2CuS2,-0.992759736333332
mp-568036,La2GaN3,-1.306130553541666
mp-25885,LiCuPO4,-2.181721986853741
mp-779643,Li2CuPO4,-2.289869276726191
mp-550998,TiZn(BiO3)2,-2.192551325333334
mp-680561,U5Re3C8,-0.177832063906249
mp-550759,RbClO4,-1.069178804583333
mp-685477,Tc6BiO18,-1.763297348000001
mp-4597,Y2B5Pd14,-0.48686432611422203
mp-600041,SiO2,-3.251736823541667
mp-22755,TbGeIr,-0.9252124772222151
mp-769809,Gd3TaO7,-3.803172537939394
mp-1008689,Ti2Si,0.265850752037036
mp-998981,TiAl3,-0.41083221666666603
mp-1008901,MgH2,-0.1733321425
mp-30283,Tb4SiBr6,-1.896257421515152
mp-16705,Pr2O3,-3.729270369416666
mp-44,U,0.0
mp-561664,TeF4,-2.216336207
mp-3274,NiGePd,-0.462582204999997
mp-782662,Li2V5Cr2O12,-2.392069722460316
mp-554719,Mg3B(HO2)3,-2.424809097147436
mp-989614,LaReN3,-0.886972158750001
mp-780392,Li5Cu(PO4)2,-2.523014057247024
mp-756066,Ho2Zr2O7,-3.860742280909089
mp-15994,Hg(PO3)2,-2.198609597837295
mp-980052,Yb3In,-0.17743722374999701
mp-23957,SrH2I2O7,-1.4602621335416661
mp-553082,PrBi2ClO4,-2.388985133958334
mp-24728,VH2,-0.226861982499999
mp-690771,H8CS(NO)4,-0.8523560879166661
mp-672689,Hf6Co16Si7,-0.659060421724135
mp-766079,Sr8Cu8O17,-2.017589839242424
mp-12027,TaTlSe3,-0.7410641909041371
mp-28133,Gd3CCl3,-1.8065723024999991
mp-757207,YH5S3O13,-1.928224760625
mp-2001,LaTl3,-0.35813329125000803