material_id,formula,formation_energy
mp-11468,NdHg2,-0.5219421108333311
mp-560638,Na2U2Si(O4F)2,-3.3816695285172402
mp-776770,LiFeF5,-2.409764326011905
mp-555014,Rb2MnF5,-2.972131870991379
mp-770883,K4Co2O5,-1.346338280818181
mp-772673,LiNiPO4,-2.3069917982823123
mp-685068,YbBr3,-2.146652140625001
mp-1019968,LaZn(BO2)5,-2.935606226078432
mp-569859,MnTl2SnTe4,-0.440537989533047
mp-3852,Tb3(CuGe)4,-0.702769079090909
mp-1020144,Na2Be4B4O11,-2.877880012829775
mp-557637,Hg2SeO3,-0.9253474820572931
mp-13264,Sm2Mo2C3,-0.359176155714286
mp-779472,Li5Cu(PO4)2,-2.522271840684523
mp-973979,LiFePd2,-0.242395083333332
mp-985572,LiAg(CO2)2,-1.498342102499999
mp-558500,K2Ag2GeS4,-0.8864509708703691
mp-695043,K4PH5Se3O16,-1.696115842307727
mp-554252,K2NaCrF6,-3.116832699587931
mp-850949,LiMnSiO4,-2.637350935894911
mp-707840,Na2Si(H5O4)2,-1.6826472414408862
mp-849727,La2Nb2N2O5,-2.850788327272727
mp-11511,LaAlGe,-0.808275546666666
mp-19083,NaVO3,-2.375747678275863
mp-972456,Sm3V,0.366579708749998
mp-976267,Si12HN8,-0.515970196517855
mp-554259,SrAgB7O12,-2.775671727896826
mp-977393,LiLu2Ru,-0.36155081916666804
mp-971662,Si,0.09184994826086901
mp-4194,Zn(CrS2)2,-1.047598752857139
mp-761748,Li2CrCo3O8,-1.688168579761905
mp-1008631,VCoTe,-0.153596478888889
mp-761944,Li2FeCo3O8,-1.560442674404762
mp-3870,Sr2Nb2O7,-3.300364764999999
mp-649683,Fe(PO3)2,-2.470533366309521
mp-23125,K3NaFeCl6,-1.9180065707390281
mp-777448,Li2VF4,-3.057028233809524
mp-973571,Lu,4.736951571734001e-15
mp-25420,LiTiPO4F,-3.01871684516369
mp-753901,Er2CuO4,-3.134255980714284
mp-553948,Tl4Hg3Sb2(As2S5)4,-0.46044393231982106
mp-604304,HgH16(Br3N2)2,-0.6892007206481481
mp-8219,Zr(CuP)2,-0.6583009338571351
mp-554847,SbP(Cl3O)2,-1.561959159714285
mp-976129,PrErZn2,-0.313637030416666
mp-1509,Sn2S3,-0.47389199418749905
mp-29590,Sn2OF5,-2.635444859375
mp-866150,LiSm2Os,-0.178307839166667
mp-554351,SrHg2(ClO)2,-1.6434904782142872
mp-571485,Tm(SiPd)2,-0.8915453320000031
mp-999192,SiNi,-0.40879569750000005
mp-972235,Tb3FeB7,-0.567345597651512
mp-558258,Eu2I2O,-2.394903188999999
mp-29778,Nd4Ge7,-0.793062668181815
mp-15780,MgPPt5,-0.576185165663267
mp-22017,LaIn2Ir,-0.5754174995833441
mp-14977,Na3Y(Si2O5)3,-3.157772938265517
mp-558022,SrBPO5,-3.121183740684523
mp-2287,SiRh,-0.816307763749999
mp-504836,YMn4(CuO4)3,-1.839007585086207
mp-771136,Ho2(SeO4)3,-2.087304098943013
mp-600061,SiO2,-3.251316406666667
mp-18875,MgWO4,-2.562331308333333
mp-676365,Li2TiO3,-2.947684084375
mp-568865,ZrTe,-1.01684129625
mp-567628,Rb2LiDyBr6,-2.115091375999999
mp-977589,Tm2TlCd,-0.291291478333342
mp-774868,ZnP4O11,-2.472765075691964
mp-756117,Li2TiTeO6,-2.418253728166667
mp-652695,Re(SeCl6)2,-0.453251944524564
mp-863250,TaMn2Ge,-0.204281419548852
mp-11500,MnNi,-0.36253736724137803
mp-568683,La16Al13,-0.421708557586208
mp-773516,Li3NiO3,-1.716244253571428
mp-542012,Rb4Hf3S14,-1.448172997619046
mp-504811,Rb2Pb4O7,-1.510042240769228
mp-764484,LiMnV(P2O7)2,-2.590982001896943
mp-30763,LiPd2Pb,-0.419870908333332
mp-755948,Tm2TiO5,-3.8337941941666682
mp-694933,MgTi3Pb5WO15,-2.460648421999999
mp-10780,RbSmSe2,-1.965809699296873
mp-770525,Na6Mn2C4SO16,-2.09854036953924
mp-772843,KSiPCO7,-2.513290767444805
mp-1019796,K4P2O7,-2.6051445840989
mp-567849,Er2Al3Co,-0.488614176666666
mp-672986,SnPO4,-2.124769625357142
mp-779641,LiCu5(PO4)2,-1.63524436547619
mp-23043,RbPb2Br5,-1.484788659687499
mp-14316,KPr(SeO4)2,-2.008153268217013
mp-558227,K2RbMn2F7,-3.000733195238506
mp-555408,SbS7IF6,-1.278051135999999
mp-866201,Ti3Bi,-0.12043561291666902
mp-637582,Rb2BaPt2(CN)8,-0.336942289285715
mp-20265,LiIn2Pt,-0.602446651666664
mp-866204,Pm2SiHg,-0.5530704818750001
mp-9209,In2(SO4)3,-1.9227556384313722
mp-30209,LiBH4,-0.44843481375000005
mp-6671,Sm4Si2S3O7,-3.2564560764062502
mp-752496,TiOF,-3.393969898611111
mp-971813,TmB4Ru,-0.65314756861111
mp-974581,ReBiO3,-1.2107745975
mp-780118,Na4Ni2O5,-1.306033652319748
mp-867649,LiTi(Si2O5)2,-3.121685615104167
mp-849472,Li5Co7O3F13,-2.353306485595238
mp-542148,Sb2N5F11,-1.670128965277777
mp-27322,Nb2Te3O11,-2.1725177253125
mp-4964,YSbPt,-1.3647838966666601
mp-864629,Pm2TlCd,-0.46711447874999806
mp-694856,V2Bi8O17,-1.6912560464814832
mp-768049,Na3Ni2P2(CO7)2,-1.940767928627114
mp-707392,Mg3B2P2(H9O10)2,-1.9636006538915352
mp-1002124,HfC,-0.48147441
mp-19520,NdNi(BO2)5,-2.8557747384313723
mp-976106,Hf3Tl,-0.024140797500002
mp-754345,LiTaO3,-3.036713801133333
mp-9999,Ni(BMo)2,-0.47897765966666606
mp-19251,RbLiCrO4,-2.090410020119047
mp-755401,Na3CuO2,-1.3509231665229842
mp-2940,LuPO4,-3.519590600218253
mp-775295,Li2MnCr3O8,-2.233557675328408
mp-32826,Dy2S3,-2.3473839929375
mp-1108,TaB2,-0.66259926411111
mp-542132,YbCuAs2,-0.8933221762499991
mp-624218,P3SN4Cl5O,-0.85555570242347
mp-559417,LaB2ClO4,-3.143332195416666
mp-775311,LiCuSbO4,-1.6718918408333332
mp-643651,Rb3ZnH5,-0.302904760972222
mp-753197,HfTiO4,-3.725641982638888
mp-867175,SmAgAs2,-0.895839380624998
mp-601823,TaTe2,-0.6384653054074061
mp-754993,SbSeO5,-1.30018301033482
mp-5702,Cu3SbS4,-0.30063369765625003
mp-638731,LaCO3F,-3.132186842222221
mp-774702,Li3BiO4,-1.8847122450000002
mp-20538,HoMgIn,-0.35816704111110903
mp-600004,SiO2,-3.255533581666667
mp-653062,Mo2Cl8O,-1.2583436338636371
mp-28355,Na4Ge2Se5,-1.014689077021452
mp-866200,Li2SmTl,-0.25029464625000003
mp-560228,K6Ti2O7,-2.543623140011111
mp-776336,Ti2N2O,-2.128542864333334
mp-562100,NbS3,-1.138030066041664
mp-15559,KSb5S8,-0.460628250446427
mp-761755,LiCu(PO3)3,-2.323160155875851
mp-24381,H5ClO2,-1.185515970156249
mp-643397,H8Pd(NCl3)2,-0.816932634117647
mp-4995,LiSbO3,-2.118194097166666
mp-11420,YGa,-0.6466602412499991
mp-16293,KSbO3,-2.004404203449999
mp-772157,Li4Ti5Nb3O16,-2.976760085714285
mp-2268,TbAg,-0.30377725916666304
mp-542385,K2MnH4(SeO5)2,-1.33970091905887
mp-4655,SrTl2O4,-1.719419101666666
mp-34293,CsTaN2,-1.138485138708329
mp-775187,LiFe8(BO3)8,-2.205661678455284
mp-685090,Ga2O3,-2.05200047525
mp-570485,SrAlSiH,-0.4586405203125
mp-9167,SrCN2,-0.992018326875001
mp-3455,Er(NiP)2,-1.005126015857142
mp-6949,InF3,-2.763129218749999
mp-760083,Sr5Nb5O16,-3.183638306538462
mp-12384,NaEr(PS3)2,-1.202843379066501
mp-35308,CuCN,0.23871636249999803
mp-775891,Mn3Fe3(SbO8)2,-1.6821684793247131
mp-555467,Sr2AlCO3F5,-3.505704666458333
mp-19377,LiLa2MoO6,-3.065384506333333
mp-772045,SnSb3(PO4)4,-2.276197720148809
mp-505297,NbSbRu,-0.515632994999999
mp-556528,In4GeS4,-0.677109670740738
mp-754146,Rb3YO3,-2.1855129725
mp-541570,SrZrSe3,-1.8622276039375012
mp-12067,MnAl,-0.224589803965517
mp-757209,LiCuPO4,-2.150768294710883
mp-777900,Li3FeF6,-2.955533581
mp-554777,NaCuPO4,-2.150052985860309
mp-754837,Hf2N2O,-2.460575459499999
mp-998197,RbCaCl3,-2.6001399235
mp-5207,Sc(PO3)3,-2.973967434532968
mp-21991,Rh17S15,-0.541647407412106
mp-334,LaF3,-4.5073675629166665
mp-862366,Sc2TlAg,-0.33774410874999805
mp-559634,Ni3(BiS)2,-0.388783286428571
mp-3203,NdTaO4,-3.6765333174722423
mp-30165,Sr7Re4O19,-2.752647109833335
mp-781015,La2WO6,-3.279175164861111
mp-973606,Nd2IrAu,-0.678173896249999
mp-20246,Mn4Ge6Ir7,-0.224662185395537
mp-696189,TlH6(NO4)3,-1.006025180946969
mp-23954,Na2H2Pd,-0.32566743550000005
mp-962057,SrCaSi,0.18183951416666602
mp-699146,Mg3AlFe(SiO4)3,-2.88276278025
mp-758715,Li2CuSiO4,-2.330942323749999
mp-29976,Na3BS3,-1.15523431368637
mp-571217,La3SiPd5,-0.9233438422222221
mp-7167,SmRh3C,-0.432206347999999
mp-725,RhO2,-1.218954728333332
mp-30787,MoRh3,-0.26083931125000204
mp-543047,KNaCu(Si2O5)2,-2.799468314919371
mp-19513,SrV2(AsO5)2,-2.327886138666666
mp-8401,CsMgF3,-3.427780151749997
mp-567345,NbRh,-0.38570528333333404
mp-28212,Nb4O5,-2.467337063333334
mp-765735,VO2F,-2.39680654625
mp-982615,Pm2InAg,-0.465665762500002
mp-866067,Nd2CdIn,-0.40104680291666406
mp-779091,LiFe4(BO3)4,-2.225099485238095
mp-15702,MgCN2,-0.24529391562500003
mp-20721,NpTeAs,-0.7914132893055581
mp-780003,La2P4O13,-3.138926724398497
mp-754790,Ti3N2O3,-2.674874465625
mp-567636,VFeSb,-0.275219096666666
mp-669414,HfPbO3,-2.98700547075
mp-14132,Lu3Al5O12,-3.725327474875
mp-30589,LaCu4,-0.144846165
mp-780531,Na3Mn3O8,-1.840665743423645
mp-556781,Y3CuGeS7,-1.712041366041666
mp-1019102,SmMnSi,-0.506399225977011
mp-1804,Fe3N,-0.157779082499999
mp-777789,Na11Bi5O16,-1.651339514224138
mp-571513,Rb2NbCl6,-2.008327181666669
mp-850984,MnOF,-2.338815133754789
mp-21457,Ti3Cu3O,-0.9360247642857141
mp-778731,Li2MnF4,-3.028991224228242
mp-672360,Gd(C2N3)3,-0.19818086304687302
mp-567720,CuHgSeBr,-0.531227599960939
mp-19056,HoMnO3,-3.068283038252873
mp-1018747,LaSbTe,-1.4859740822222172
mp-850947,Li3Mn5Cr2O12,-2.108988809075235
mp-980664,UBiSb,-0.362708326666686
mp-764383,MnFeCo(PO4)3,-2.249950045658866
mp-776115,Li2NbFe3O8,-2.161215765833333
mp-973175,ScBi3,-0.233084712500001
mp-762595,Li2Fe3CoO8,-1.54541737547619
mp-8585,Pd(AuF4)2,-1.2320154699999981
mp-3931,SmSF,-3.317725045833334
mp-641987,Sb8Pb7S19,-0.6386233828676451
mp-9194,SmCuSeO,-2.236524274335937
mp-864770,Ta2MoOs,-0.455647456166666
mp-19291,NaVPO5,-2.63002029169027
mp-560242,NaMnF3,-2.964065348862068
mp-21471,LiFeAs,-0.43770784861111206
mp-760629,LiBiP2O7,-2.485221597965367
mp-581370,YCu3Se2ClO8,-1.6021799313125
mp-773066,KTa2PO8,-3.102582549713293
mp-777528,Li3VF6,-3.1595227550000002
mp-697267,TlP(HO2)2,-1.924226937872024
mp-754174,Tb2Nb2O7,-3.382738889393939
mp-559052,LiNb3(Bi2O7)2,-2.429904200833333
mp-8120,NdCuSi,-0.677422834166667
mp-8262,K2P3,-0.549950390285712
mp-754942,SrSm2O4,-3.61718043
mp-30586,HoInCu2,-0.31954735291666303
mp-978907,TbTlAg2,-0.23515822833333302
mp-19833,InAgS2,-0.5596083526562491
mp-617266,SrNb4O6,-2.706064196363636
mp-975509,RbBa3,0.12439313812500001
mp-972957,ScTiRu2,-0.656583467083333
mp-779465,Ti17(NO4)6,-3.054714511631205
mp-22094,Tl2Ru2O7,-1.304436474696969
mp-21197,NdIn3,-0.580238471875002
mp-972650,SmDyRh2,-0.7895103966666661
mp-36240,LiMn8O16,-1.845291736071264
mp-29069,Na(CuS)4,-0.5932587401532551
mp-569050,NaW6NCl18,-1.323488244860744
mp-19260,Li2WO4,-2.352370269523809
mp-14964,Pr3TaO7,-3.712499282030299
mp-764088,Li6Co2OF11,-2.6200468480000003
mp-861639,Ti2CoIr,-0.6511540691666671
mp-849780,La3H15I10O37,-1.353814874134615
mp-1018808,MgCoGe,-0.22357470000000002
mp-9239,NaLaMgTeO6,-2.6082844158045972
mp-15323,Nd(BOs)4,-0.44587592416666405
mp-765698,Mn6O11F,-1.8514706293103442
mp-560982,K2Cd(NO2)4,-1.097468229966666
mp-753239,LiSnPHO5,-2.240177631580688
mp-9718,Rb3BAs2,-0.32505594944444305
mp-773525,LiFe3O4,-1.6720515504166662
mp-773725,NaLi5Mn2P2(CO7)2,-2.397033689738222
mp-781502,Li2Mn3(BO3)3,-2.450889686056458
mp-541566,K2MgB12(H2O3)10,-2.132442818992307
mp-755565,HoBrO,-3.338852836666669
mp-18883,YVO3,-3.2656779040000012
mp-16961,Na6Si2Se7,-1.137090264978807
mp-10349,Na2SnTeO6,-1.860587601942529
mp-10622,PrAs,-1.760069192083332
mp-734377,KCdP3H8O13,-1.94412340754533
mp-998554,KAgCl3,-1.186842439249999
mp-641415,PbWO4,-2.009854296666665
mp-769218,Ni(PS3)2,-0.46015542158730005
mp-31225,Pr2Mo2C3,-0.282119543333335
mp-36819,Sr(CeSe2)2,-2.161931339196427
mp-999339,NdNi,-0.31951349624999803
mp-773081,Li3Ti6Zn3O16,-2.9704990396428563
mp-622086,La2GeS5,-1.8340569096875061
mp-777459,Li3FeF6,-2.962361402333324
mp-762538,Mn13Fe11O32,-1.849855788448276
mp-1005792,Sm2CuAs3O,-1.551877326428572
mp-773196,LiCoCSO7,-1.7763405368939391
mp-770678,Li2Cr2O7,-1.871896386515151
mp-616641,K2UI5,-1.318528097437499
mp-8898,TaAlO4,-3.411296655805555
mp-999145,SmNi,-0.36807611
mp-685779,Sn5(Mo3S4)12,-0.723698882247191
mp-981749,TcAg3,0.594415053750001
mp-2400,NaS,-1.00427061140625
mp-20101,Yb5Si4,-0.8212104533333341
mp-769588,Li3V2S2(O4F3)2,-2.5075835788095233
mp-779737,Ho2P4O13,-3.154096542161654
mp-24683,RbZn2P2HO8,-2.37537065057398
mp-765704,Li4Fe3Cu2Sb3O16,-1.7485581429761892
mp-31453,NbSbRh,-0.40056579666666603
mp-5449,Na2Ti6O13,-3.314977577512348
mp-643989,KHCO2,-1.563919358699999
mp-673118,Sn3(P2O7)2,-2.378646248741496
mp-561259,Na3NbOF6,-3.172353439921629
mp-696329,RbCa(H2N)3,-0.600795636818181
mp-38605,Sn(BiTe2)2,-0.273701861428573
mp-762326,Li2CuF5,-2.423879192291666
mp-19176,La2NiRuO6,-2.633363193
mp-21190,PbSO3,-1.715408564499999
mp-542625,Sr3GaSb3,-0.9496347339285711
mp-757874,LiSiBiO4,-2.5187518752976192
mp-686085,Sc13Cu13O33,-2.497786070677966
mp-3524,LiPN2,-1.025848460535714
mp-767497,Li9Ti7Nb5O30,-3.025251833594772
mp-999069,Ti2AlFe,-0.23221631416666602
mp-680747,K4(BSe)9,-0.566406142996684
mp-769579,KFePCO7,-2.096512411535714
mp-28964,Ta4FeTe4,-0.5707468667777781
mp-976930,Ni3As,-0.10482235958333001
mp-557121,K2Sn(AuS2)2,-0.8999656099444431
mp-27618,Na8Ga2O7,-1.866047422119673
mp-980192,YbOs3,0.26944276374999904
mp-3498,HfGaNi2,-0.557136344374998
mp-19013,LiV2O5,-2.393635529166667
mp-757082,LiSi3BiO8,-2.814813376794872
mp-569209,SbAsPCl13,-1.190696538571428
mp-384,MgP4,-0.298333085714285
mp-1020016,Li4Ca2Mg(SiN3)2,-1.112437577888889
mp-861908,TaTiRu2,-0.6045244860000021
mp-777551,LiVF3,-3.027767362666667
mp-974527,NdSmZn2,-0.32118997062499904
mp-962071,MgScTl,0.255079955555553
mp-865329,Lu2MgTc,-0.055413163333333
mp-776170,LiTi2O4,-3.205518166428571
mp-690581,Li6Mo2O7,-2.101306844333332
mp-29646,HfAs2,-0.7454448491666661
mp-6668,LiTiPO5,-3.046197983913691
mp-752533,SrLa2O4,-3.568850792857143
mp-557747,K2SrP2O7,-2.919873771357142
mp-774873,NbS2,-1.2909205533333301
mp-22108,HoTiGe,-0.688317777777774
mp-33816,Rb6Fe2O5,-1.42341422153846
mp-2176,ZnTe,-0.6841630333333321
mp-24714,ZnH4(CO3)2,-1.469007309230769
mp-754073,Lu2TiO5,-3.8785095670833343
mp-557758,LaMg(BO2)5,-3.11262242490196
mp-775320,Li4V3O8,-2.443021288222222
mp-22355,Sr2InSbO6,-2.581770948666666
mp-755894,Li2O,-1.977238203055555
mp-560623,Mg3(PO4)2,-3.055636439175825
mp-569605,Yb2Tl,-0.36262339000000504
mp-2739,TeO2,-1.4944626113888861
mp-619279,In2PbS4,-0.8158923165476171
mp-568240,Zn3As2,-0.142193604749999
mp-7285,HfNi3,-0.5154395633333351
mp-653579,Re3S4Cl,-0.935011268124999
mp-556488,RbNiF3,-2.6157677544999993
mp-980082,YHo3,0.063393933750003
mp-1020666,Li4P2O7,-2.200836767893771
mp-1020670,SrB4O7,-3.014835824027777
mp-975395,Nd(Mg4Al3)4,-0.052542602327585
mp-771045,La2SiO5,-3.728757956250001
mp-978558,SmErRh2,-0.816731158749999
mp-981548,YErTl2,-0.327305839166668
mp-24617,RbGdH2S2O9,-2.280083629666668
mp-707720,MgH40C10Br2(N2O)10,-0.762675861084336
mp-780202,Li2FeO2F,-2.316799958194444
mp-567912,SmHgPd,-0.692106703611114
mp-9562,LiBeAs,-0.47837898361111103
mp-20637,SmCuPb,-0.52078586333333
mp-541001,LiInI4,-0.9999549629166661
mp-28163,K2PdF4,-2.413465222071428
mp-756205,ScBiO3,-2.7730727665000012
mp-763318,LiCo2(BO3)2,-2.1000140510606062
mp-774315,Li10Ti3Co3(NiO8)2,-2.224143112156863
mp-570931,SrLi3MnN3,-0.752861739741379
mp-756127,TaNbO5,-3.144502231404761
mp-973634,Ho(AlC)3,-0.29895053571429103
mp-14680,Sr2Ga2S5,-1.6536633272222212
mp-704943,Li2Mn3ZnO8,-2.018102850389983
mp-974862,Rb3Na,0.056405154030171004
mp-8354,LaF3,-4.489462639999999
mp-769006,Li(Bi3O5)4,-1.548994611919193
mp-601241,Na3YH12(CO5)3,-1.7802271985040572
mp-557175,ZnS,-0.9623006405729161
mp-976072,NaAc2Pb,-0.28883503875000105
mp-7284,USi2,-0.275697478333337
mp-559760,ScIO,-2.8917588466666633
mp-759962,PH5NO3F,-1.599895578831169
mp-30661,ScGaPd2,-0.8764897312500001
mp-632176,TaTcPb2,0.692369155666661
mp-721067,LiCaP3H8O13,-2.126746282971611
mp-30784,Mg2Zn11,-0.062448946410254
mp-570684,ZrOs2,-0.45304709000000304
mp-644278,Y2H2C,-0.5824686735000001
mp-624909,LaNb2CuBrO7,-2.77292445625
mp-38901,Nd2SmS4,-2.298995194999999
mp-780798,LiMn2Cr2O8,-1.989330304553493
mp-558933,Na2Ge4O9,-2.131760481739463
mp-17868,NaAsO3,-1.8849056684425292
mp-849682,Li2MnVP2(HO5)2,-2.402719908132412
mp-975872,K3Pr,0.5277778552499991
mp-11255,PrAu,-0.7273524220833291
mp-11504,MnZn3,-0.11721638987068901
mp-13962,HfSiSe,-1.102706933020831
mp-18815,KVO3,-2.406671246950001
mp-4758,K2NbF7,-3.3712123232
mp-7135,TbS2,-1.9216384218750022
mp-24294,HgHClO4,-0.6833557655357151
mp-542067,Rb4Ti3S14,-1.337950789285713
mp-542676,Lu2Te4O11,-2.31137674235294
mp-555018,RbNa2AuO2,-1.292620134209769
mp-777450,Ti5Mn(PO4)6,-2.9004378061793012
mp-559343,KCu4(PO4)3,-1.978874759808928
mp-980069,YbPrRh2,-0.791502189166664
mp-569565,La3(CrN3)2,-1.2317499252272701
mp-25436,TiPO4F,-3.162325138996599
mp-999335,NdRh,-0.6777139762499981
mp-3379,K2SbF5,-2.917701455250001
mp-6481,Na2ZnSi3O8,-2.832151200554187
mp-774043,MnV(P2O7)2,-2.499232703825122
mp-754804,La3Ti4O12,-3.6940658009649123
mp-775837,Sc2O3,-3.88695266
mp-9985,NbNiB,-0.5600169847222211
mp-978534,SiGe,0.030787385
mp-568673,Y(SiRu)2,-0.879523911999996
mp-9266,Na6FeS4,-1.087876208479623
mp-29690,Tl2Te2O5,-1.365297354166664
mp-6125,RbTi2(PO4)3,-3.025165085449734
mp-999300,PdN,1.187593987500001
mp-674465,K2SrCl4,-2.400892061428568
mp-30420,SrAu,-0.8102438095000021
mp-765833,Li6Fe5NiO12,-1.832403359166666
mp-540622,RhF5,-1.487063945416666
mp-763253,LiCoSiO4,-2.305671184761905
mp-771985,Ni7(PO4)6,-2.009561998861003
mp-559289,YTaO4,-3.7039209987222232
mp-568904,KTh(SbSe3)2,-1.193162688131249
mp-971926,YErRu2,-0.319282959999999
mp-18447,K3Na2SnAs3,-0.452824543556513
mp-33948,Ho2Ti2O7,-3.781774462878852
mp-864641,HoCl2,-2.05126342166667
mp-983229,Pm2ZnRh,-0.499349341249998
mp-31087,Tb2Pd2Pb,-0.8385197886666641
mp-972423,TbGa2Pd,-0.863886184999998
mp-764445,LiNbCo3(PO4)6,-2.186134346891156
mp-777153,Li2Fe2NiO6,-1.527476226060606
mp-755031,KPrPCO7,-2.618533480323592
mp-31073,Na3B7O12,-2.76291957946839
mp-982010,Pr2CdAg,-0.254516923749997
mp-30355,SrAg,-0.27184485375
mp-680384,Sr10Ga6O19,-2.820452242714286
mp-865523,TiMnRh2,-0.570469517816091
mp-571342,TiGa2,-0.44140580027777704
mp-763191,LiMnF3,-2.942981421752874
mp-9472,LiAg2Ge,-0.158556680416666
mp-707443,Na7AlH2C4(O3F)4,-2.3155021367385062
mp-676637,Na2UI6,-1.223537582250956
mp-29947,K3PSe16,-0.342337343694642
mp-18724,Sr2CoO4,-2.336809990000001
mp-774732,Li5BiS4,-1.226900747541666
mp-17888,K2Zr3OF12,-3.860545978861111
mp-850918,Li2Mn5(PO4)4,-2.541370541292343
mp-27345,Na3BiO4,-1.7188922086422411
mp-776756,Li4TiMn2Ni3(PO4)6,-2.493069982759646
mp-754311,Mg(ReO4)2,-2.386015473636364
mp-567723,Nd(NiAs)2,-0.7936347944999991
mp-35906,Y(AgCl2)3,-1.343167612999999
mp-568595,Re4Si7,-0.285723608181819
mp-1464,Nd5Ge3,-0.8231713596874961
mp-6511,KCSN,-0.5351224188281231
mp-675802,Y4Zr3O12,-3.908353984736838
mp-850740,Li2V3P4H4O19,-2.35410563219494
mp-146,V,0.0
mp-686581,In2(PSe3)3,-0.354263833963648
mp-633,LaSn3,-0.566906818749998
mp-408,Mg2Ge,-0.34389672666666704
mp-972741,Si3P,0.5785683325892841
mp-761046,Na3Ti2(PO4)3,-2.816328668986659
mp-15685,Na2CuAs,-0.46944853812500004
mp-4412,La4Se3O4,-3.256037440639207
mp-758696,Li2Cu2F7,-2.258602400303042
mp-769496,Na3Ni2P2(CO7)2,-1.987661419496679
mp-672223,Na2Zn2(TeO3)3,-1.494697702047414
mp-11235,SmMg2Ag,-0.091075006666666
mp-866156,YGaRh2,-0.7753529693749991
mp-5548,Ta2Cd2O7,-2.681269108606061
mp-974770,NdZn2Cd,-0.321501334374999
mp-625572,H5BrO2,-1.11438140140625
mp-17789,K2RuO4,-1.713982263857143
mp-34439,Tb10Ti6O27,-3.755643660968992
mp-21298,NpSi2,-0.48395127791666903
mp-779352,Mn2O3F,-2.033398846810345
mp-37620,LiMnO2,-2.145675582816093
mp-8774,Rb3CO3F,-2.2722239040625
mp-30866,Rh3W,-0.269029907499998
mp-21625,Y2(Ga3Co)3,-0.47809104946428704
mp-672979,LiBiP2O7,-2.5240584456926403
mp-974035,Pb3I2(Cl2O3)2,-1.247093558999999
mp-975019,Rb3Cd,0.063542381875
mp-753921,Sb11S18,-0.21243215322737002
mp-757527,LiTi6O12,-3.371757199122807
mp-19717,TePb,-0.503829899999999
mp-763205,Li2VO2F,-2.605297443611111
mp-4847,Y4Al23Ni6,-0.512973576666667
mp-557903,Lu2Ru2O7,-2.61845676530303
mp-559955,Pr6Si4S17,-1.7791479345370331
mp-769077,Mg2Te3O8,-2.053979498461537
mp-540287,Li2Cr(PO4)2,-2.513813369304029
mp-777920,LiFeF4,-2.737984551388889
mp-972224,TaGeRh,-0.5842121999444411
mp-542453,NbPO5,-2.928794882091838
mp-27690,Sr3Zr2O7,-3.525166010416666
mp-567082,Ti4As3,-0.982194654880952
mp-21904,PbS2O3,-1.408243617916665
mp-772972,Li2Ti2O5,-3.099892777870371
mp-674942,Na3N2O9,-0.571072647081281
mp-8689,V4GeSe8,-0.9452497949038521
mp-21002,LaIn2Rh,-0.647625159583332
mp-971985,TbAlCu2,-0.377235755
mp-8781,SnS,-0.39386153640624805
mp-541553,La10Os2I15,-1.498655436111112
mp-607267,KPb2Cl5,-1.54429492921875
mp-975110,RbMg3,0.28266111937499905
mp-1059,NdCd,-0.299887293749998
mp-10566,Lu3BC3,-0.495186403452381