material_id,formula,formation_energy
mp-764374,Li2Mn4OF8,-2.808436104892719
mp-32383,Li2NiP2O7,-2.48764356549603
mp-779775,Li24Ti11CrO36,-2.917955947037038
mp-31286,K3Bi,-0.5012231678125
mp-581716,Sr(InAu)3,-0.467596316428572
mp-677192,K4PH5S3O16,-2.022221064910098
mp-4135,RbPO3,-2.68106058217857
mp-648072,NaPO3,-2.5864494667044333
mp-541787,Na8Hg3,-0.165423600909091
mp-867178,PrMgCd2,-0.30411599166666503
mp-1751,ThSb,-1.082992919999995
mp-894,ZnPt,-0.5652836399999991
mp-692,Tb2C,-0.417311696666667
mp-754505,SrTaNO2,-2.734088363133334
mp-780107,Li7Cr3Fe(PO4)6,-2.5854111224680603
mp-753611,PCl3O,-1.577910020928571
mp-623064,ReN2(OF4)2,-1.7032440303846141
mp-565692,K3Bi5(PO4)6,-2.458142991305451
mp-23571,KBa4Bi3O,-1.302854963027778
mp-17504,Sr3(GeAs2)2,-0.9451046286111091
mp-641010,La4Te3N2,-1.8791122783333312
mp-775869,Li4Cr5SbO12,-2.28601378060606
mp-1016820,MgSnO3,-1.866468146999999
mp-530546,SiO2,-3.255606834197531
mp-570774,Zr5Al4,-0.462321123888888
mp-675379,Li2Ta2O3,-1.869384753047619
mp-849545,Mn12O7F17,-2.545003374588124
mp-974620,Rb,0.036396663749999
mp-760170,Sn13(O5F3)2,-1.8813778813793092
mp-1013830,NaCo3P3O13,-1.991508315515394
mp-772635,Mn3Cr2Co3O16,-1.4649176926580472
mp-10851,SiO2,-3.263757990555557
mp-774347,Mn3Fe(PO4)6,-2.174062561225006
mp-862750,SrNiSn2,-0.48099039624999906
mp-12647,TbNbO4,-3.566975817777776
mp-558842,Sm7BP2O17,-3.6130215369797183
mp-772842,Na2Ge2O5,-2.122380988639846
mp-673168,SiO2,-2.586446322222222
mp-22019,Yb3Sb5O12,-2.326643973
mp-22418,Sr3(SnIr)4,-0.5869383472727291
mp-867193,Sr2BiAu,-0.9549747737500021
mp-2762,YIr2,-0.80069665
mp-675892,Yb(SbTe2)2,-0.422141090714287
mp-21307,NaEuTiO4,-3.079937876030378
mp-652479,LiZnPO4,-2.545254627121598
mp-12226,NaNd(PO3)4,-2.902104047636124
mp-18832,K2VO2F3,-2.797603298375
mp-676527,Na4PH5Se3O16,-1.641420625980735
mp-6168,K3Nb2CuSe12,-1.017774884020833
mp-697816,Li2Fe(PO4)2,-2.372258544496337
mp-632815,Li10Ge(PO6)2,-2.519420708904761
mp-973818,LiHoO3,-2.244521940666665
mp-20343,NaAuO2,-1.081343630344827
mp-867887,Sm2CuIr,-0.5488407323611101
mp-773699,LiMg(Fe5O8)2,-1.720526960297618
mp-777472,LiFeF4,-2.732960353472222
mp-22859,HgI,-0.443566703750002
mp-28276,K2PrBr5,-2.199331474520835
mp-14836,Pr4Si2Se3O7,-3.170509341324869
mp-759030,KSmH4(N2O7)2,-1.42059116665625
mp-626256,H3NO4,-1.054001367656249
mp-504806,K2Li14Pb3O14,-1.9075615027626251
mp-935267,Li4UC3O11,-2.424256888991227
mp-754725,UCd3O6,-2.270865616499999
mp-1018784,LiCe(CuP)2,-0.7783612054365061
mp-10600,La3AlC,-0.283068273499998
mp-11568,SmTl,-0.37424301416667005
mp-20478,LuTiSi,-0.7389298794444411
mp-775025,MnCu(PO4)2,-2.157938219351395
mp-2315,NaB15,-0.07871145171875
mp-989645,YWN3,-1.201808497250002
mp-867220,LiTm2Ir,-0.638711158333338
mp-1046,NbSn2,-0.117157088333333
mp-768218,Li2TmPCO7,-2.792103116775793
mp-982005,Th(Mg4Al3)4,-0.033871599655172
mp-569333,Li2AgBi,-0.39559465333333305
mp-555909,Tb5Se2Cl3O10,-3.029098746401041
mp-642493,Hf3Al3C5,-0.7435239459090891
mp-626083,Si2H2O5,-2.5590615675
mp-542545,K3Nb2AsSe11,-1.022161677648897
mp-29743,Sr5U3O14,-3.629398166590907
mp-755835,LiBiB2O5,-2.388447550740741
mp-21124,SrIn4Pt,-0.47832751861111306
mp-11912,NaNd2IrO6,-2.621297260137931
mp-763941,Mn6OF11,-2.834115412088123
mp-23202,InI,-0.6524206583333321
mp-849468,Li4Fe3Co3(TeO8)2,-1.677286780238095
mp-8180,LiNO3,-1.386762498666665
mp-764497,VFe2Ni3(PO4)6,-2.196162607996031
mp-6591,SrLiAlF6,-3.876253812592592
mp-704220,FePO4,-2.306356226329365
mp-6105,Pr2Ta3(SeO4)2,-3.154219587834723
mp-758100,LiCuPO4,-2.160842623282312
mp-971702,YbNdCd2,-0.36574908562499703
mp-757800,LiCuCO3,-1.6403951883333332
mp-12826,Sb8Te3,-0.18058348636363503
mp-19166,Sr3NiPtO6,-2.27420212340909
mp-676473,Te6H6S(Cl13O2)2,-1.1179741508139531
mp-781618,Mn12O7F17,-2.564936795699234
mp-22044,Sm2Ge2Ru,-0.762161818000004
mp-569806,K5Na(Ti2Se9)3,-1.189826083997707
mp-768663,Na3SiBiCO7,-2.283334479549071
mp-35236,Ga2NiO4,-2.010357559999998
mp-17988,U2Mn12P7,-0.657587021793923
mp-974779,NdTh3,0.066244255625008
mp-9581,Th(CuP)2,-0.7709506778571351
mp-556771,Nd2Si2O7,-3.605712831136363
mp-4079,Sc3AlC,-0.6796490030000001
mp-759821,Sb3O2F5,-2.345944796249999
mp-2930,Mn3ZnC,-0.004132007381407001
mp-20131,YIn3,-0.52248454
mp-7543,LiVS2,-1.335750084583332
mp-976122,Ge3Sb,0.285639341249999
mp-780421,LaAlO3,-3.639826190000001
mp-690508,Ta2Mn4O9,-2.659629292092719
mp-644483,Ti3SnH,-0.433976837749997
mp-8411,Na2AgAs,-0.476849584375001
mp-510728,MnCoH18(CN2)6,-0.23116641869555302
mp-628782,V3Pb5ClO12,-2.061256764761904
mp-27700,Sb4Br2O5,-1.61753876272727
mp-559608,K3NdSi7O17,-3.182962402205357
mp-11892,NaNd2RuO6,-2.673883322137931
mp-867296,RePO5,-2.323798486020409
mp-631409,TlTcIr2,0.624160577812503
mp-24798,Rb3B12H12Cl,-0.5060403991964281
mp-6782,Li2ZrTeO6,-2.496664910333334
mp-5962,NaMgAs,-0.7864752741666661
mp-9607,Li2UO4,-3.1431914013095232
mp-25571,MoO2,-1.770659999999999
mp-763303,Mn3O5F,-1.9402887231992332
mp-846,Hf2Al3,-0.48079304500000103
mp-690435,Li7Mn11O24,-2.026578636918446
mp-2714,Pr2Au,-0.528117441111109
mp-203,NiTe,-0.1536937025
mp-19363,HgMoO4,-1.5400649545833351
mp-13202,YCuSn,-0.600728026666667
mp-980945,Ti3Nb,0.084450384999998
mp-23025,LaClO,-3.6045768816666692
mp-27301,Rb3Au3Cl8,-1.393393388749999
mp-570594,Sm3CuSnSe7,-1.568526409700521
mp-20950,Nd(SiPt)2,-1.000508467499999
mp-865237,Tm2ZnIr,-0.688207760000004
mp-5001,Li3BN2,-1.006785902916667
mp-1009048,KAgO,-0.5784837046388871
mp-752670,Li3FeS3,-1.092472075357142
mp-30651,MgGa2,-0.114579071666666
mp-11364,TiCu,-0.055840630833332
mp-979459,Sm5Mg,0.016990683333333003
mp-22858,TlI,-0.8653483916666691
mp-21872,PrLuO3,-3.9139104936666653
mp-554651,K3Pu(H3O4)2,-1.880493309333332
mp-560512,Sm2EuBeO5,-3.52681868
mp-867351,Tc,0.004149037499999
mp-645743,VAgTeO5,-1.641256086354165
mp-18373,ZnSe2O5,-1.372878197773443
mp-790,LuPt3,-1.184483194166667
mp-569348,TlGaBr4,-1.266562929930557
mp-568018,RbSb2,-0.409100007500003
mp-778532,Li2FeF4,-2.859964461190475
mp-30801,NdZn5,-0.305460852916667
mp-1001824,IrC,1.424505266250001
mp-1008676,TiS2,-0.323945729444443
mp-782667,Li2MnSiO4,-2.6452486140122122
mp-30293,Sr2GeSe4,-1.570705549196435
mp-1018728,HoSe2,-1.7675977677083332
mp-638206,P3CN4Cl7,-0.8147171304285711
mp-540728,K2Zn6O7,-1.729306688633331
mp-559917,P2NCl5O,-1.293854752420634
mp-569983,Ni2PdSe2,-0.28664048091646904
mp-12813,YbIn2Rh,-0.7006431762499991
mp-558427,Na6Mg(SO4)4,-2.2623967204916973
mp-542730,V8C7,-0.614048261685187
mp-780799,Li8Mn5Fe3(BO3)8,-2.439387535201149
mp-752890,LiCu2C2O7,-1.488198770277777
mp-978969,TlAu3,0.077672596249996
mp-531064,KMo3Br7,-1.223698784863636
mp-770359,TaAsO4,-2.580765894555554
mp-21780,SmSi3Rh5,-0.9519794253703691
mp-580886,ZrIN,-1.5906020600000002
mp-1020025,LiB3O5,-2.772310767037036
mp-763577,Li3Ti2V2O8,-2.794133103111111
mp-998391,RbTlBr3,-1.393226987166668
mp-997084,RbAgO2,-0.9608348172916661
mp-541066,Mg2B4Ru5,-0.349661878333333
mp-760378,LiTi2O4,-3.204690599285714
mp-16903,SrSbF5,-3.3650974460714282
mp-754204,LiGdO2,-3.173334767083334
mp-23931,LiPH2O3,-1.960441244710884
mp-775922,SrNb3NO7,-2.840044517500001
mp-705894,RbSi2Mo3P6O25,-1.601329046496138
mp-647218,Re2P2O11,-2.304902737285715
mp-1097,TaB,-0.863821164916668
mp-763259,Mn3(PO4)2,-2.546607162544523
mp-777919,Na3CoO3,-1.5299758709482751
mp-981367,SrTlO3,-1.6242701456666682
mp-554420,Y2SiO5,-3.7561577234375
mp-977579,MgSbPd2,-0.604305191249999
mp-769316,Li5Nb3OF18,-3.2500841396913582
mp-753506,LiBiS2,-0.920144984583333
mp-780893,Na6V2O7,-2.076662852551724
mp-15155,Na2Sm2Ti3O10,-3.3530525554563892
mp-20011,NaSbO3,-2.001695280275862
mp-776343,WN2,-0.27670568437500204
mp-8426,K2Se,-1.2399382956145821
mp-997086,SrAgO2,-1.8261176741666652
mp-27843,Zn2Ge3O8,-2.016907164615384
mp-680154,Rb2Ti(GeO3)3,-2.356803219888888
mp-23656,Na4Ga3Si3ClO12,-2.682350928174663
mp-1820,YbS,-2.156742438906249
mp-6299,K2Mg2(SO4)3,-2.3814855897105263
mp-1050,Ni3S4,-0.658521378571426
mp-625663,ScHO2,-2.9704737703124993
mp-18898,Sr(NiO2)4,-1.254240238076923
mp-3405,NaAl11O17,-3.360404121944086
mp-555727,RbTb(PO3)4,-2.922630473763226
mp-697921,Mg5H8O9,-2.09649716909091
mp-10366,Nb2Co3Si,-0.428580233333332
mp-567963,Lu5Ir2,-0.7433404733333341
mp-559463,RbMgAs(H6O5)2,-1.581161172399999
mp-555314,Sr7Zr(Si2O7)3,-3.451624391285715
mp-9322,Rb2Sn2Se5,-0.991024071302082
mp-774455,Na4P3H3O11,-2.3377171043188483
mp-780882,LiMnPH2O5,-2.141231562840721
mp-985608,Nd2O5,-2.680034604285715
mp-33775,La5AgSe8,-2.098141987321428
mp-19014,Sr2CdWO6,-2.618560415
mp-560863,ThSe2O7,-2.1523238229687482
mp-5967,TiCoSb,-0.658718782222221
mp-557319,InH8C4NO10,-1.347286324097222
mp-769466,Y2Ge2O7,-3.021032278181823
mp-998147,TlCuCl3,-1.051494141166669
mp-764874,Li3Fe8(BO3)8,-2.247043609147286
mp-570226,Sm3CuGeSe7,-1.571149619283853
mp-980195,Tm6Al7Cu16,-0.41825327862069106
mp-15081,Sm2Se3,-2.198047837437499
mp-23170,IO2,-0.696473726249999
mp-776741,Li2Mn3SbO8,-2.07796491360427
mp-684623,Zr10C9,-0.9983573618421061
mp-631352,NbSnRu,0.596433260448719
mp-989607,LaOsN3,-0.5750231845
mp-5394,LaSF,-3.452929627604165
mp-976118,HgH6I3NO,-0.7300152429166671
mp-753305,LiTiSiO4,-3.047561937380952
mp-758281,RbB2P2HO9,-2.618908958424603
mp-705861,Rb10NaAl11Si13O48,-3.071719742968425
mp-778748,Li3FeBO4,-2.241013413796296
mp-707227,K5H3S5O14,-1.831466239166666
mp-2343,Mg2Sn,-0.167098778333331
mp-733581,PrH(SeO3)2,-1.978059625760416
mp-30302,HfBrN,-2.00116077666667
mp-7288,Sc2SO2,-3.4087673845
mp-1001827,IrC,1.220723241249999
mp-865876,Ti2TcOs,-0.7029357108333331
mp-24073,Gd(HO)3,-2.209807160535715
mp-974545,ReSn3,0.7425340274999991
mp-30986,Zn3S2O9,-1.860329990714285
mp-560066,SbSO2F5,-2.2567278480555553
mp-2292,La2O3,-3.874143096250002
mp-1018815,NdSbPd,-1.065285044166653
mp-679975,KGaO2,-2.163672529468749
mp-971909,ZnPd3,-0.31889551124999904
mp-756553,Li5Cu3(SbO5)2,-1.783768492333333
mp-4789,PrRhO3,-2.47127042533334
mp-5039,KPO3,-2.68566805237857
mp-774371,Li4Mn3F10,-2.9764228480662602
mp-1020109,LiMg3P3O11,-2.972969114570104
mp-556689,KZrF5,-3.802644833416667
mp-4759,ZrTe3O8,-2.086251128541652
mp-9958,Ti2GeC,-0.880546748333332
mp-569871,Tm6CoBi2,-0.445243625555563
mp-623134,ZrInCu2,-0.21930670166666602
mp-17334,Sc2Cr4Si5,-0.448404354090908
mp-18954,ScMnO3,-2.983540803252874
mp-1008999,LaSe,-2.020677942031248
mp-27256,Sb2(S2O7)3,-1.711118435344838
mp-28319,PtI2,-0.41580178833333703
mp-561474,K3LiSiO4,-2.430990501398148
mp-11473,TlHg,-0.003333103750001
mp-985,TmCu,-0.300832150000001
mp-7444,RbSb,-0.5141176712499981
mp-703550,LiZnPH2O5,-2.144975024797619
mp-28017,Na8Ti5O14,-2.859622532877819
mp-961713,ZrSnPt,-1.167385201666666
mp-510294,Sr2CuWO6,-2.472931554
mp-16481,TiAlAu,-0.558657072222222
mp-863708,KPuO3,-2.921963576199996
mp-531530,MgAl2O4,-3.353518839999999
mp-29288,TlGeI3,-0.686466422666667
mp-35841,Li2CuGe,-0.319751125416666
mp-30176,U2AlCo3,-0.232895236666664
mp-4196,NdFeSi2,-0.617751108125
mp-766207,Zr6Nb2O17,-3.5560670402000003
mp-975341,La3Mg,0.0028873374999990003
mp-541986,K2LaH4N5O17,-1.433811137224138
mp-772869,Ta7InO19,-3.179010143444444
mp-367,Sm4Sb3,-1.226047945
mp-769997,La2Ti3O9,-3.637799156071428
mp-568855,K2Hg(PSe3)2,-0.7782633984407471
mp-8799,RbNaS,-1.212117723793103
mp-774859,LiNbPO5,-2.761183432872023
mp-12433,NaSnN,-0.19462483379310302
mp-775731,Li9(NiO4)2,-1.7013588269736841
mp-1009219,HfN2,-1.034273426666665
mp-14563,NaCa3IrO6,-2.496500891943573
mp-18860,Li2VSiO5,-2.7659651535185192
mp-771,MnAl,-0.272285743965517
mp-541177,GdVO3,-3.252683904
mp-17177,Nb2ZnO6,-2.7647865047222213
mp-770848,Li2TiCo2O5,-2.238254834
mp-714,SrSn4,-0.28562209600000005
mp-28899,Hg2As3Br,-0.22273587291667002
mp-28805,Tl2Pt5S6,-0.660501517435897
mp-697111,H2O,-1.280002993333333
mp-773918,Zn(Bi19O30)2,-1.5994923509090921
mp-706273,KH(IO3)2,-1.153232777724999
mp-4649,PdSe2O5,-1.077457179335938
mp-758063,LiTiP2O7,-2.818097556677489
mp-779973,Hf2N2O,-2.53120191575
mp-12071,Ti3As,-0.5619415440624991
mp-697253,SiH12C2(NF)6,-1.27548808574074
mp-558616,SrZnP2O7,-2.8457895049350643
mp-349,Yb3Si5,-0.6674931537500011
mp-721086,Li2CuP6H20C2(N3O11)2,-1.569996882703793
mp-756804,TePHO5,-1.89663091656994
mp-31473,K2Hg7,-0.237695974444445
mp-4908,Y(CoGe)2,-0.597658338
mp-36582,NaHS,-0.808417760520833
mp-557019,RbErSeCl2O3,-2.434947848105468
mp-975138,RbWO3,-2.0409458445
mp-585305,Li9Bi3P8O29,-2.568742424227404
mp-29232,ZrPb3F10,-3.104492811428573
mp-22027,MnSnAu,-0.171871310804595
mp-780892,Na4Fe2As(CO4)4,-1.793604257889527
mp-541810,K2Ni12As7,-0.25319605700000003
mp-862375,Sc2TcHg,-0.268722304375002
mp-570203,MnCoSb,-0.17275829722701003
mp-560639,SbS(BrF2)3,-1.862913860681818
mp-543019,GdNi2,-0.413900755
mp-561189,Rb6Si10O23,-3.001223165641019
mp-773453,K2FePCO7,-2.250526834511904
mp-690004,LiCo(PO3)4,-2.3528842906613763
mp-978535,SmDy3,0.037194861249999
mp-2128,Sn4Pd,-0.14896972500000003
mp-977570,LiPr2Os,-0.062683129999999
mp-975256,Ho3Hg,-0.19250953062500903
mp-541367,SrCd(PO3)4,-2.712450513670635
mp-722267,Na5H7(Se2O9)2,-1.480226123382987
mp-764643,Li5Fe8(BO3)8,-2.280677957777778
mp-677573,NaCa2Mg2(AsO4)3,-2.536743130443965
mp-16847,K3Na2SnP3,-0.38491264260413105
mp-980387,DyYIr2,-0.8049817729166661
mp-697076,Ti3Zn3C,-0.441767579642857
mp-772562,Nd2V2O7,-3.133897131818182
mp-669923,UGa,-0.037400820000002
mp-28179,NaTaCl6,-1.928379467651579
mp-566150,In2Cu3(PO4)4,-2.1529909406761902
mp-772750,Li3MgPCO7,-2.583922128434066
mp-504474,TbHO2,-2.9108665244791663
mp-756531,LiNd6(CuO6)2,-3.053568413730159
mp-18902,Li2WO4,-2.3364574059523813
mp-864959,Dy2CuOs,-0.31250953749999805
mp-11492,LuNi2Sn,-0.516252012916664
mp-865689,Y11In9Ni4,-0.510891361249998
mp-5181,LuSnPd2,-0.9190374991666631
mp-770190,Li4V2Si(PO6)2,-2.702138206553289
mp-569028,Rb2SnBr6,-1.5713690522222201
mp-997002,KAuO2,-1.1440430680624991
mp-8070,Li2BeSiO4,-2.969780010208333
mp-774335,Sn2P2O7,-2.321358833685064
mp-685266,LiMg7N5,-0.8371450412500021
mp-31189,DyBe13,-0.18534650047619
mp-11703,KSbS2,-0.8528676698437501
mp-705354,Mn4(PO4)3,-2.4531127963501422
mp-677445,Y4SiS3,-1.9808603504296882
mp-673682,Tb2YbS4,-2.257314129464284
mp-31171,Zn2AgAu,-0.156005926249999
mp-624187,Y5Bi3,-0.8411287368749991
mp-8469,Li8IrO6,-1.924912261777776
mp-863370,K6Nb11O30,-2.913624826138298
mp-8754,NaLiTe,-1.129250698793103
mp-650442,Tl3AgTe2,-0.395670876250001
mp-7768,Th2SeN2,-2.2334680133125002
mp-555280,ZnS,-0.962023470572916
mp-6294,Sr2ErRuO6,-2.877480758499999
mp-999136,TaInSe2,-0.7381845813645811
mp-560131,SiO2,-3.175410817083333
mp-770856,Li2MnCrO4,-2.260389770887212
mp-721013,ZnGaP2H4NO8,-1.9559007031932771
mp-574438,ThRu2,-0.31051598499999905
mp-541636,KEr(PO3)4,-2.918776637406745
mp-766834,Li7Ti16O32,-3.237525571030303
mp-31167,Er5Si3,-0.7782292927083351
mp-754711,Nb2Pb2O7,-2.492317274545454
mp-3982,KCuO2,-1.3747728230624991
mp-738654,UH16C4(NO3)4,-1.262891619391891
mp-726,SeO2,-1.154143574114583
mp-866650,La2Si4CN6,-1.331251311538462
mp-723044,ZnH12N3Cl5,-0.887200795238095
mp-758413,Na2CdO2,-1.437968474801723
mp-557505,KUP3O11,-2.914592609995535
mp-8630,SbIrS,-0.5933227426041671
mp-972876,Sc3Cd,-0.156367681249999
mp-582736,Eu(MgSb)2,-0.798328447000001
mp-759346,LiCuPO4,-2.181389073193027
mp-541846,P4O9,-2.357238610274727
mp-571305,RbCuCl3,-1.462800619
mp-770812,SrCe2O4,-3.53247994142857
mp-1013583,Sr3Sb2,-0.689110017999999
mp-10180,Li2SbPd,-0.713076248333331
mp-754019,Na4NpO5,-2.562992238926725
mp-780526,Li2MnCSO7,-2.118859567674808
mp-20610,LuGeRh,-0.9924840172222211
mp-851257,V2OF5,-3.042216834062499
mp-558706,RbGa3S5,-1.144059651944444
mp-557599,Rb2Bi(ClO4)5,-0.8059042542857141
mp-722686,SiH10C2N4(OF3)2,-1.496897098499999
mp-8065,K2Ti6O13,-3.347455425690477
mp-850669,YTa3O9,-3.483537554961539
mp-3890,Sm2Cr2Fe15,0.043933924210527005
mp-971669,FeSb3,-0.167010088124998
mp-12049,Nd2Sb,-1.013258746666669
mp-697236,MgH2(SeO3)2,-1.624817587471591
mp-776816,Li2FeF5,-2.8368485161458343
mp-30910,Mg2Ga5Cu6,-0.180746144166667
mp-29978,Sr5Al2F16,-4.116544838478261
mp-505528,Nb3P,-0.6365586055357141
mp-556085,Rb2LiTaS4,-1.513940912270833
mp-977424,Yb2ZnPb,-0.38132614124999903
mp-1608,ZrHg3,-0.06165371937500701
mp-30559,LaCo13,-0.018662681785715
mp-768334,LiMn2OF5,-2.6695904901883782
mp-11546,TiPd,-0.480634840833332
mp-765733,Mn4O7F,-1.8890081597270112
mp-9010,RbAuS,-0.927596775
mp-20092,EuTa2O6,-3.452298534685183
mp-778219,Li4Cr3Co3(SnO8)2,-1.972013616547618
mp-10445,Sc6FeTe2,-0.7170950092592571
mp-777019,Li8SbS6,-1.254551489444443
mp-569203,Tl3Bi2I9,-0.800636830714287
mp-558870,P3RuO9,-2.292726193763733
mp-30838,ThPd,-0.778747793749992
mp-770368,Li3V3(BO5)2,-2.566467034907406
mp-1009071,IrC2,1.454949671666663
mp-3683,Ho3(CuGe)4,-0.622964346818179
mp-865223,LuMgCd2,-0.233183900416666
mp-690591,Na3(CoO2)4,-1.325176880275862
mp-780179,Li7FeCo3(PO4)6,-2.309101976614402
mp-795639,Rb2Be4Pt3,0.14050859611111102
mp-1014244,ZrZnN2,-1.155319141875001
mp-625238,Re2H4O9,-1.7075165893333342
mp-6569,K3HgN5O11,-1.1025921167125001
mp-759131,LiCu3F10,-1.744602749404764
mp-19302,NaCaVO4,-2.7691338459113313
mp-5996,Na2Ti2Si2O9,-3.160490493461686
mp-4252,SnPS3,-0.40020340978274005
mp-16043,Mg(As2Rh3)2,-0.517183892272728
mp-756489,Li6FeS4,-1.141906447727272
mp-980757,Sm5Sb3,-1.121722890000001
mp-569335,Sm2C3,-0.357325423999998
mp-626843,Ni(HO)2,-1.226250628499999
mp-8622,Rb2PtSe2,-1.074541657937501
mp-998965,TiInFe2,-0.037745229999999005
mp-778756,LiVBO3,-2.471147359583334
mp-779846,HoTa3O9,-3.492700559384614
mp-20880,NdAgPb,-0.5761480291666641
mp-558585,Hg3PClO4,-1.478142938849208
mp-19747,Ni3(PbSe)2,-0.30562680687499905
mp-768139,Li8Sb2S,-0.828725695378787
mp-1013532,Sr3AsP,-0.7607700471369071
mp-34898,Zr4N2O5,-3.118725585681818
mp-850904,Mn2OF3,-2.619477198310346
mp-1016197,MgSiAs2,-0.297332561249999
mp-714911,V3O5,-2.51969036875
mp-675103,Sr6Bi2O11,-2.460687109736842
mp-677217,MgMo3S4,-1.0454456406250001
mp-764328,Na5Mn7O16,-1.9110323647290641
mp-754153,LiH2BrO,-1.503645087666667
mp-10935,NaErPO4F,-3.362353660752771
mp-1747,K2Te,-1.222004715833333
mp-780126,Li3MnSi2O7,-2.706941164840848
mp-1009792,RuC,0.453844466249999
mp-856,SnO2,-2.107482005
mp-551900,PrBi2BrO4,-2.343494804583335
mp-3400,Lu(MnGe)6,-0.322566060327144
mp-30326,Ti5FeSb2,-0.48203653020833304
mp-764738,LiFe4(BO3)4,-2.231994005714286
mp-977162,NaTl2Pb,-0.11401581333333101
mp-699660,KHo2Cu(MoO4)4,-2.39138184009375
mp-758272,Zr4N2O5,-3.133308358181817
mp-41701,LiCo2P4H3O14,-2.220694913360615
mp-12645,LiHoO2,-3.299361123333331
mp-505138,K2PdSe10,-0.39389785887980705
mp-997100,SrAgO2,-1.8154016966666662
mp-849327,Li2Cu(PO3)3,-2.384631119539683
mp-978797,Sm3Hf,0.17489729874999602
mp-865206,TmCdRh2,-0.6039427575
mp-861726,PuBiPd2,0.16996308281250302
mp-774418,TiV3(PO4)6,-2.657787760623248
mp-30279,NpIO5,-2.122867483749997
mp-982443,NaCaPb2,-0.329671745344824
mp-31360,K2Ta3Cl9,-1.8748970433214271
mp-559354,NaNbO3,-2.805655039775862
mp-30569,Zr6Co23,-0.20158460655172203
mp-27267,ReP4,-0.388405733380952
mp-5450,K2ZrF6,-3.655629739388885
mp-17649,TlSnF7,-2.343756699444444
mp-758450,LiCu3(CO3)3,-1.463514761458333
mp-5942,NaAsS2,-0.707556392656249
mp-14716,Nd2Au5F21,-2.233580988303571
mp-557606,SbAs3(Se2F3)2,-1.5862012522767852
mp-561254,NaLi3GeO4,-2.231948850708812
mp-767780,KV4O10,-2.350430812483333
mp-18612,Rb2MoS4,-1.241346462142855
mp-11601,NaErO2,-3.178125172219825
mp-715574,MoO3,-1.865178323750001
mp-757202,K7(Bi3O8)3,-1.51272422201875
mp-505545,Lu2FeB6,-0.692140192314812
mp-776051,Li2Mn2Fe(PO4)3,-2.457613428322866
mp-762358,LaH9(SO6)2,-1.80912618015625
mp-723082,Na5Te2H36AuO28,-1.361955597711525
mp-568326,Pr2WC2,-0.25437630366666303
mp-712,YCu,-0.22700687999999902
mp-11501,MnNi3,-0.23613481112068802
mp-26533,LiNb2(PO4)3,-2.76981404901455
mp-568266,Tm2NiAs2,-1.207597279
mp-30537,TbP5O14,-2.822881313869047
mp-19306,Fe3O4,-1.6295829685714271
mp-758673,LiNb2O4,-2.716891397619047
mp-850404,Li2FeO2F,-2.292634136527777
mp-5936,La(SiRh)2,-1.044830758999997
mp-625836,Sr(H2O3)2,-0.9996782090909091
mp-16907,RbNpN3O11,-1.631723435390625
mp-8053,YCo,-0.131873240000002
mp-21251,UGa5Ni,-0.325144682499998
mp-9947,SiC,-0.305930113928572
mp-705305,V(PO3)3,-2.580369689917582
mp-9810,TlFeSe2,-0.50454981575521
mp-33449,Tb5AgS8,-2.11290062392857