material_id,formula,formation_energy
mp-862747,Sr2PtAu,-0.798878797499995
mp-761151,Zr6O11,-3.623043120294117
mp-541180,Te3Pt2,-0.43693187000000006
mp-2866,Yb(FeSi)2,-0.5021426869999991
mp-776150,ScAgO3,-2.110980848333333
mp-8830,NaRhO2,-1.4591744428448281
mp-758720,Li5CuF6,-2.7918045256944453
mp-1009596,PdN,1.3342853325
mp-23133,Sr2Cu3(BrO2)2,-1.791332525454545
mp-560235,K9Sm3Si12(O16F)2,-3.186331584487068
mp-760415,Li3SbS4,-1.0947282868750001
mp-22696,NdInCu,-0.46364907583333403
mp-28835,LiScI3,-1.347733139666667
mp-21078,Fe3Ge,-0.129162534999998
mp-29519,KAuI4,-0.8019475003749991
mp-30320,RbHfF5,-3.8943896239285722
mp-779980,Hf2N2O,-2.527075462499999
mp-624486,K2Sn(GeO3)3,-2.115568274633333
mp-21129,Sr2Cu2O5,-1.942848560555556
mp-505686,GdH3,-0.674504033645831
mp-754478,HfZrO4,-3.877154581666666
mp-2058,Ni3B,-0.23660327500000003
mp-962069,LiAgTe,-0.560684517222221
mp-634062,RbCdH2I3O,-1.2110536025
mp-774412,LiCr(PO3)3,-2.540496095161565
mp-763358,Fe4OF7,-2.408141418333333
mp-29986,La2Al2I,-0.8770519
mp-4404,Sr(AsRu)2,-0.7642250210000011
mp-755346,Li5BO4,-2.354144798083333
mp-753385,LiAg2F4,-1.7107788020238082
mp-2568,YSi2,-0.5361982633333351
mp-570097,Sr(Li2P)2,-0.9617530475170071
mp-546757,Sn3PO4F3,-2.412105847694805
mp-3324,Nb2SnO6,-2.7461501200000322
mp-862485,GaCuRh2,-0.37303708687499804
mp-672368,UVN2,-1.5259586318749991
mp-1009813,SiSn,0.19199882250000003
mp-777807,Li2VF5,-3.128432585677083
mp-753268,Li6CuF8,-2.861424501333333
mp-780861,Fe4O7F,-1.4647191308333332
mp-4798,Sc(AlC)3,-0.500998362857142
mp-18255,RbSm(PO3)4,-2.917901648392856
mp-755529,SbPHO5,-2.080984395111607
mp-850358,LiCuSbO4,-1.74098419047619
mp-25053,Sr2NiMoO6,-2.4696039020000002
mp-976783,Ge3F,-0.38524880640624903
mp-774402,VCr3(PO4)6,-2.3851565884663852
mp-569446,NiPb,0.087368079999997
mp-5819,Pr(NiGe)2,-0.6830107163333431
mp-31874,Fe(PO3)4,-2.350186585798317
mp-685415,Na3SmBr6,-2.019167363313793
mp-761527,LiMnPO4,-2.6178318522724613
mp-559937,UTe3Pb2O11,-2.050176742794117
mp-568656,SiC,-0.3058404775
mp-27212,Sb2IF15,-2.387006293472254
mp-2,Pd,0.0
mp-850880,Fe4O5F3,-1.174228066249999
mp-7973,RbNdO2,-2.901663756249998
mp-975045,Rb3Cr,0.7116983318750001
mp-9556,SrZnSi,-0.5025965600000001
mp-775259,Li2Mn3F8,-2.9734588327276743
mp-571461,K4ZnAs2,-0.440942497714283
mp-975216,RbReO3,-1.973228657
mp-973022,ScRu3,-0.05016767875000001
mp-7937,NaNbS2,-1.453704387844829
mp-971634,NaNiO2,-1.304977424094826
mp-31312,Ga9Rh2,-0.345133940227272
mp-756876,K3BaPCO7,-2.584684096260988
mp-759424,Li7Bi2P7O24,-2.574608329020834
mp-976593,Nd3Si,-0.291583669375
mp-776615,Li4VCr3O8,-2.4250677470833333
mp-631304,KNb2Se,1.153555780101562
mp-4658,La(BO2)3,-3.191427007250001
mp-2725,TbIr2,-0.8175618772222211
mp-601344,LiZr3H18N4F19,-2.233801358074074
mp-756951,LiSbO3,-2.059622312666666
mp-631484,TaTiAl,0.7705011500000011
mp-771838,La4Al6O15,-3.589059096200001
mp-34465,Li2HN,-0.5180029057291661
mp-28733,Sc3C4,-0.541908377428571
mp-865013,EuAgAu2,-0.477775561666668
mp-567214,NdSnRh,-0.8506385219444421
mp-554821,Tb(IO3)3,-1.489286858012832
mp-769118,HoSO,-3.028261964166665
mp-774411,Li2VO2,-2.051847119333334
mp-752433,LiLa3Ti4O12,-3.565503740083334
mp-753349,LiTiSiO4,-3.055189736666666
mp-972966,Sc2OsAu,-0.5890004374999971
mp-557969,LiLa2S2O8F3,-3.029296072083333
mp-569684,Zr(TeCl6)2,-1.491940822555555
mp-720397,H18RuN5(ClO)2,-0.6385849578571431
mp-2696,MgAg,-0.23041872333333302
mp-761132,Ta5Pb11O26,-2.264690025873015
mp-569153,PrCoSb3,-0.640224429249991
mp-640391,Tm5NiPb3,-0.49773010666666706
mp-631331,Si2HgTe,0.6247457081249971
mp-779064,Li4FeOF5,-2.7892896975757573
mp-999502,MoPt,-0.35810017000000005
mp-615,YMg,-0.07437748250000001
mp-20849,Pd3Pb,-0.30311032999999904
mp-979935,RbYb3,0.7308290834374951
mp-570683,PrInAg2,-0.35108754541666504
mp-31746,Li3Cr(PO4)2,-2.6187144835204093
mp-706617,Na2AlSi3HO9,-2.9352379393130392
mp-778251,Li4TiCo2Ni3(PO4)6,-2.352503654113095
mp-2068,RhF3,-1.7746290387499992
mp-570248,NaC2N3,-0.230192647430556
mp-865665,TiReTc2,-0.322698332291665
mp-22229,TbInCu4,-0.312193425000001
mp-769148,Sc(ClO4)3,-0.857880575
mp-3721,SrHfO3,-3.8082743569999993
mp-771194,Nb2Ge2O7,-2.4290773370454533
mp-23171,PrBi,-1.182174148333331
mp-763244,ZnFeH4O2F5,-2.002051572692308
mp-695772,Mo(PO3)4,-2.457656735504201
mp-753524,La2(BiO2)7,-2.028920913043479
mp-5752,Tb(SiIr)2,-1.094001369333335
mp-21504,V4GaSe8,-0.9126503401923091
mp-3789,Zn2SiO4,-2.44712343857143
mp-6309,La3Cu4(P2O)2,-1.542299241043956
mp-643158,PH8IN4,-0.537253677474488
mp-15483,Zn3(AsO4)2,-1.766752955192308
mp-754239,ScGaO3,-3.042402545
mp-950,NaZn13,-0.08099031928571401
mp-769075,Li2CuH14C4(N3O4)2,-0.961566396404763
mp-43,U,0.08967122466668401
mp-530245,Tm2TiO5,-3.738986948229168
mp-974364,RuAu3,0.365786297500001
mp-705008,V4P9O32,-2.4672550471507932
mp-3055,NdB2Rh3,-0.652754732638901
mp-10264,NiTe,-0.19041621250000001
mp-558569,SiO2,-3.194217924722222
mp-865843,YbNdZn2,-0.35587701312499903
mp-23709,Mg(AlH4)2,-0.144007213181818
mp-19340,LiVO2,-2.493781042083334
mp-975274,RbNaO3,-0.5021710987758621
mp-10097,Na3Sr3GaAs4,-0.813139928330721
mp-568903,TlV5Se8,-0.8685210325595251
mp-29733,MgNiBi,-0.190246501666669
mp-28344,Zr6CI14,-1.248055231666668
mp-757777,LiSiBi3O7,-2.127544724444445
mp-976903,NaNd3,0.24734246023707102
mp-1018791,LiY(CuP)2,-0.7918834571031741
mp-850975,Na4Ni2C4SO16,-1.801185556778416
mp-11160,SmSbIr,-1.01647506416667
mp-555641,Nb2Te4Cl10O,-1.395523864803921
mp-972095,Zn3Hg,0.10218328999999901
mp-555527,Sm3Si2S8Br,-1.792927005000009
mp-696195,YSeF,-3.195617353020834
mp-753656,SbOF,-2.102434050833334
mp-4888,NbPO5,-2.906992435663266
mp-771093,Li3Cr10Fe5O24,-2.170312636428571
mp-554716,NaSbCO2F3,-2.316412064547413
mp-505344,U3Co7B2,-0.349121956944456
mp-971804,ZnNi3,-0.116058669999999
mp-27411,TlP5,-0.044324999146825
mp-28442,TlAs5S8,-0.442829823988094
mp-560997,KVF4,-3.224534616000007
mp-1315,MgS,-1.66198437625
mp-771936,Sr3YI9,-1.8198738963461532
mp-36821,Nd2CdSe4,-1.691644659910712
mp-631340,SrLaZr2,0.6045300720833311
mp-552588,LiNbO3,-2.866509619666666
mp-557406,NaB3O5,-2.7846075488569593
mp-760046,LiPH21S3N7,-0.532357952476551
mp-766423,Li8BiS6,-1.240880326777777
mp-669645,Nd5In11Ni6,-0.40524019458333205
mp-13406,LaAgPb,-0.49928999722222406
mp-686697,Na3Sr4Nd3Ti10O30,-3.458237928599425
mp-972217,Ti2CuTc,-0.33271794583333203
mp-756818,LiSiBiO4,-2.477699733809525
mp-756597,Li2HfO3,-3.140955494444444
mp-19052,K3VO4,-2.256743943968749
mp-30125,PrTe2Se,-1.3219848776822931
mp-13466,Sm(SiAu)2,-0.5709742010000001
mp-978102,Pr2Co12P7,-0.713587908373016
mp-714931,VO2,-1.993680507500001
mp-20250,PdS,-0.45752569015624905
mp-8607,Na(Cu2Sb)2,-0.120316262857142
mp-774874,Li3Ti2CuO6,-2.649461859722222
mp-772840,Sm2Ge2O7,-3.011473042499999
mp-771150,Na6Cu2P(CO4)4,-1.9134845561351281
mp-1860,LaSi,-0.8014581362499981
mp-1857,YbCd,-0.378474932500001
mp-21003,Y2ReC2,-0.400386761999996
mp-26341,LiSbP2O7,-2.497008056601731
mp-557112,Li4Ga3Si3IO12,-2.683226942427535
mp-29227,TlV5S8,-1.181703686666666
mp-752910,Na3BiO4,-1.682600919267241
mp-18361,K7NbAs4,-0.447438780479166
mp-36751,In5AgS8,-0.7032958305357121
mp-675342,NdPb4F11,-2.965866333177096
mp-973847,La2ZnGa,-0.49249913374999804
mp-18127,Sr(Ni2Sn)2,-0.31611737142857305
mp-864600,TbSnRh2,-0.7767526179166651
mp-973974,K3Mo,1.16856156275
mp-976765,Na3Au,-0.17961209249999902
mp-9953,HfP,-1.431191451488096
mp-673761,Gd5(RuO7)2,-2.758058599999999
mp-778375,La2Nb2N2O5,-2.863633418181818
mp-22563,Gd(LuS2)3,-2.369015291000001
mp-1652,ZnPd,-0.576280689999999
mp-556544,LiAlSiO4,-3.18810415297619
mp-13413,ThCu5Sn,-0.232852196785713
mp-684904,K2O,-1.194241038166666
mp-764734,Mn3VSb2(PO4)6,-2.406189365323618
mp-21296,PtPb4,-0.16461350999999202
mp-754759,Y2O3,-3.904430815499997
mp-29543,P2SeO3,-1.739976933396576
mp-1138,LiF,-3.188945303333333
mp-567770,Zr2Al3C4,-0.235198005555553
mp-849953,Li2Mn3VO8,-2.184148837175698
mp-776323,Li2V5NiO12,-2.301106314833333
mp-777855,Li4NbFe3Cu2(PO4)6,-2.366866301529762
mp-561260,Na2CaP2O7,-2.88676357392036
mp-30867,ScRu,-0.5430755124999991
mp-775644,V3CuO8,-2.039223064166666
mp-684031,Mg3(TiAl9)2,-0.156651298768115
mp-542833,Zn3(BO3)2,-2.274198815984848
mp-31136,Lu2NiSn6,-0.39054529814814803
mp-4891,HoAlO3,-3.752550615499999
mp-7921,MgPdF6,-2.427327279375
mp-20260,U(SiIr)2,-0.7977367659999981
mp-753623,Li2Cu4S3,-0.6304044837962961
mp-30449,MgCuBi,-0.09895257833333301
mp-973538,Lu2AlZn,-0.414974569583332
mp-294,UO3,-3.529985247812498
mp-28087,Pb4IF7,-2.431199952083332
mp-560238,K2CuF4,-2.534802429214285
mp-13695,SmCuO2,-2.65674744375
mp-1020122,MgS2O7,-2.145147585
mp-850959,Li5Mn6(BO3)6,-2.478355552550083
mp-17291,Na3SiTe3,-0.8463417455911321
mp-757282,Li2Sn5(PO4)4,-2.319808908156966
mp-985829,HfS2,-1.806995168541668
mp-871,FeSi,-0.47597936624999904
mp-778700,Li2FeF4,-2.850446506845238
mp-754110,SmAgO2,-2.539740289166665
mp-559349,Sb2ClF17,-1.896984091999999
mp-778256,Rb2MgO2,-1.879201735749999
mp-2640,TbAs,-1.819632861250003
mp-770988,Na2CoPCO7,-2.095554418533456
mp-16577,Li2CaHfF8,-3.8766172094444453
mp-752446,RbNO3,-1.4000594395000001
mp-981311,SrTlHg2,-0.37609535208333905
mp-864990,Mn2AlW,-0.21519467146551602
mp-18873,Rb2NaMnO4,-1.815569341788792
mp-33746,SrCO3,-2.662804631999999
mp-31089,Ho2Pd2Pb,-0.8380224769999941
mp-569237,Ga(BiCl)4,-0.9225250832407421
mp-1008858,NdBiPd,-0.9460851791666641
mp-9210,La(PdO2)2,-1.980157364285713
mp-541818,Rb4(BSe)9,-0.5815937131178971
mp-19169,PrVO4,-3.163636718611112
mp-776740,Li2MnWO6,-2.1458630949597692
mp-568552,LuNi4Sn,-0.41318265527777703
mp-8221,ZrAsRu,-0.8519818369444451
mp-770574,La2MgI8,-1.6200955009090912
mp-17164,NaNbGeO5,-2.578586651109914
mp-6268,KTiPO5,-3.048965920184524
mp-24638,Mg3P2(HO)16,-1.8868957336293422
mp-15837,Nb5Se4,-0.767630425138889
mp-4122,GaPO4,-2.59967003924603
mp-777898,LiFeF4,-2.730019562430556
mp-30849,TaPt2,-0.7437694224444371
mp-972504,Sm2AlZn,-0.352529827499999
mp-28073,UCuO4,-2.674525173333331
mp-754250,NaLuO2,-3.239507648886493
mp-981748,TbAg3,-0.20898556916666503
mp-9886,La(PRu)2,-1.046766056857133
mp-989532,Rb2TlInF6,-2.7585047335
mp-556212,K4U5Te2O21,-3.029818397729165
mp-570441,Sm4Ga16Co3,-0.50987704695652
mp-780619,RbTaO3,-3.022135071466695
mp-767146,Li7Ti12NbO30,-3.227854914866666
mp-19360,LuCrO4,-2.7860604761111123
mp-1006118,P2S7,-0.172447247293318
mp-561351,SiO2,-3.254891058888888
mp-767151,Li2CuNi(PO4)2,-2.270798574353741
mp-753712,YIO,-3.048536466666665
mp-30671,Ti2Ga,-0.40278368138888904
mp-770943,Li4TiNi5(PO4)6,-2.390106242863094
mp-850396,Li2Mn3(BO3)3,-2.448432296350574
mp-774359,V3OF11,-2.858684777333333
mp-615314,ScCoC2,-0.348740543749999
mp-570377,Sn3As4,-0.064334008571429
mp-772993,Li2Ti7Nb6O30,-3.148679460222222
mp-779885,Li2MnV(P2O7)2,-2.652929194462232
mp-2578,NiTe2,-0.22533823666666802
mp-647,NbS,-1.15248608125
mp-764771,Li6V5O12,-2.45906167
mp-768754,LiBi2(SO4)3,-1.8356949406018521
mp-21499,YbInPd,-0.903775325000001
mp-759634,Sr16Cu8O23,-2.423118397127659
mp-20186,PrRuO3,-2.480910365333333
mp-2525,PrAg,-0.23179544166666402
mp-556641,Na2LiAlP2H2O9,-2.5636317382575102
mp-676206,RbAg4I5,-0.678291408166665
mp-1435,SrZn5,-0.244903154999999
mp-775433,Li2Ni(PS3)2,-0.8314085855411241
mp-29420,Hf(Se2Cl3)2,-1.036272630113638
mp-754672,TiO2,-3.427717181944443
mp-762259,Li2Cu2F5,-2.279606559814814
mp-770900,NaMnAsCO7,-1.821528739255485
mp-7469,NaCuO,-1.226059258793103
mp-570606,Pr4Ge3,-0.9361555930952361
mp-22503,ZrCo2Sn,-0.38218298374999904
mp-637866,Sc9Ni5Ge8,-0.7656422393181811
mp-693857,NaLi2Al3(SiO4)3,-3.075616974787903
mp-542063,Rb4H6C2O9,-1.749489501071429
mp-774241,NaVAsCO7,-2.001775274443573
mp-3612,NbSbO4,-2.520152113749992
mp-974667,Rb2H2C2O5,-1.72742623159091
mp-21890,NdCoSi,-0.656790592499999
mp-723419,Sb2S19F12,-1.4195136338636352
mp-721686,SnH4(ClO)2,-1.315145322777777
mp-706544,NaGa(H2N)4,-0.45313832027709405
mp-765615,Li6Fe5SbO12,-1.9311833799999991
mp-571352,TmB6,-0.39151687285714604
mp-11415,Sm9Ga4,-0.45750582076923
mp-15322,ScCuSi,-0.686937607777778
mp-976589,NaIn3,-0.155755889999998
mp-10765,Ho,0.049763695000002
mp-778194,Ge2N2O,-0.7831104740000001
mp-752555,SrLa2O4,-3.5899115
mp-28680,KGaBr4,-1.5699616274583321
mp-976420,Nd3Ho,0.029785583125001003
mp-569768,NdInAg2,-0.41640398187499605
mp-778617,Ni3OF5,-1.9948870205555551
mp-28478,NaTe3,-0.47606470229166803
mp-558241,TaTl2AgS4,-0.8669619891458351
mp-505071,Si2Pd9,-0.44621494136363404
mp-540997,FeTeCl7,-1.156507930185184
mp-769516,Na2NiPCO7,-2.048768714158455
mp-21503,YMgIn,-0.38627930388888804
mp-19119,Sr2NiOsO6,-2.080158984999998
mp-21712,Tb2Ti3Ge4,-0.8844586497222241
mp-763418,Li2Fe3O10,-0.826597017777778
mp-22323,In2O3,-1.973362810416667
mp-541947,Rb2Th(PSe3)3,-1.038708470168154
mp-753657,TiOF,-3.462545334444444
mp-4519,KPrO2,-2.913740302229166
mp-754933,SmTlO2,-2.619747109583335
mp-37550,Mg2Ta3N5,-1.2515666532000012
mp-11418,TbGa3,-0.5547512949999991
mp-776147,Li2TiFe3O8,-2.134631340892856
mp-979041,Tm(AlC)3,-0.490421312857141
mp-546295,Sr2CuOsO6,-2.148619267999999
mp-7379,TlCdSb,-0.116218627499999
mp-1009134,MnFe,0.09255887603448
mp-28171,K3IO,-1.445846300349999
mp-669918,VSnRh2,-0.41370266124999805
mp-707343,ZrH12C2(NF)6,-1.354887119259259
mp-10314,Yb(ZnAs)2,-0.659368410000001
mp-554853,Na4Si3(SnO6)2,-2.611213505500822
mp-866157,TiGaRh2,-0.843888940208326
mp-775017,Fe3Ni(PO4)4,-2.2154310686904752
mp-2865,K2CuF4,-2.538746708499999
mp-770532,Mn2PO5,-2.374438929438115
mp-505543,Lu2CoB6,-0.6499537773148151
mp-4513,Ho2Ga8Co,-0.48003153818181604
mp-30721,Hg5Pd2,-0.055587898928577004
mp-772425,Li3V(SO4)3,-2.132523662763158
mp-779903,Fe4O3F5,-2.137391577916666
mp-757723,SrH4(SO4)3,-1.893720170875
mp-11358,TaCo3,-0.24016614599999903
mp-561058,Na3Ga(PO4)2,-2.582654586137402
mp-21810,Tm5(Ge5Rh2)2,-0.780097266842105
mp-756103,Y2HgO4,-3.005133088214286
mp-769480,Y4Ga2O9,-3.3467000471666672
mp-567590,LuOs2,-0.38892936972222303
mp-780580,LiMnPH2O5,-2.158928923340721
mp-556283,Na2TiSi4O11,-3.119839093671773
mp-971740,Sr3As,-0.45396336201389004
mp-24104,LiAlSi2H2O7,-2.77117283852564
mp-771338,La2P4O13,-3.161171774398496
mp-767716,LiVSi3O8,-2.970254698141026
mp-515,TmTl,-0.387422700000001
mp-1016843,MgOsO3,-1.372708153999999
mp-976818,Ni3Au,0.09746691250000301
mp-972960,La2IrAu,-0.7084981525
mp-972454,Sm2Mg,-0.046172016666666
mp-29373,KAlSb4,-0.311038921041666
mp-579086,KSrNb2O6F,-3.205688335659091
mp-696651,K3NbHOF7,-3.039829815615385
mp-11311,TmCd2,-0.256063600000003
mp-10811,NaSr4(BN2)3,-1.218603542777094
mp-19367,NaCr(SiO3)2,-2.893855338637935
mp-752426,Li3SbS4,-1.037354446249999
mp-772529,Y2W2O9,-2.873323668461537
mp-779305,Li2FeBO4,-2.3048163226041662
mp-2480,OsSe2,-0.279755602708334
mp-568322,Sr3Li3(NiN)4,-0.609684302857142
mp-22558,TiSi,-0.545064902083332
mp-761886,Li2Cu2F5,-2.277717130925924
mp-9018,LiCdPO4,-2.437124979710883
mp-8181,Li2CeN2,-1.167017136166667
mp-779579,LiCu5(PO4)2,-1.612832262976189
mp-697742,MnP2O7,-2.357289677221674
mp-777491,Li3V2P4(HO8)2,-2.532751973619929
mp-763482,VPO5,-2.5017754142346913
mp-28513,Pb(ClO3)2,-0.7205493000000031
mp-23887,MgH12SO9,-1.499314551413043
mp-862943,NaPmHg2,-0.43969810562499806
mp-781494,Li4Ti3Mn3(CuO8)2,-2.312349553468802
mp-4002,Li2ZrF6,-3.6890106353703693
mp-972117,SrTeO3,-2.381025315
mp-12929,SmAsO4,-2.81880786375
mp-21295,Nd2In,-0.47326662499999805
mp-697128,KCa2P4H11O18,-2.207184061099206
mp-28684,Sb7Se8F35,-2.262925375575
mp-555596,K6Si2S6O,-1.582541440566664
mp-636328,TiPd3,-0.649464614166664
mp-567185,SnHg6(As2Br3)2,-0.539796397205884
mp-36940,Mg(CN)2,-0.22084845699999903
mp-979985,YbAu3,-0.7482702000000001
mp-1554,KTe,-1.010032901041668
mp-4092,SrSeO4,-2.150680372890625
mp-686718,Sr5Al11TlSi13O48,-3.240215342606838
mp-28501,K2(NbCl3)3,-1.876899119250001
mp-542915,TiAl3,-0.43388963166666605
mp-2484,SmSn3,-0.46060433499999703
mp-14324,K2Na4Be2O5,-2.009964490770556
mp-3319,Mg(RhO2)2,-1.640764397142856
mp-1867,Ta2Ni,-0.23848323988888803
mp-540747,Nb3SiNi2,-0.395201369583332
mp-776933,LiFe2F5,-2.664290014791667
mp-22662,TiGaPt,-0.8136282252777791
mp-3161,LiAlSi,-0.19126816777777703
mp-1002115,LaPd,-0.8564344275000011
mp-1018175,ThAu,-0.61527127
mp-770625,Li4Al3Cr3(SbO8)2,-2.5971130297619043
mp-673073,LiSbP2O7,-2.4761289243290032
mp-631431,InHgW2,1.089269986875002
mp-11522,Ni3Sn,-0.185863532499998
mp-16116,RbSm2CuSe4,-1.737498057109374
mp-567780,RbSn2Br5,-1.381098447812502
mp-567694,La2C2Cl,-1.062930868000002
mp-5915,TlNO3,-0.9875068636666691
mp-557391,Na2Ca2(CO3)3,-2.462403052047414
mp-20007,MnNiGe,-0.25920189931034404
mp-555194,SiHg3(SF3)2,-2.082008722708334
mp-766452,La9ErO15,-3.8525662248000003
mp-977534,ZrNbTc2,-0.415688663749999
mp-780288,Li3Si2(NiO4)2,-2.297724281666666
mp-974335,RuRh3,0.03435010375
mp-542874,LiAl(SiO3)2,-3.191551080583333
mp-753541,LiCuF4,-2.103354136611113
mp-555211,SiO2,-3.253195799791667
mp-18246,K6MnTe4,-1.186450946543885
mp-977564,MgScHg2,-0.37706008375000205
mp-21562,Sm3InSe6,-1.8230648976874981
mp-767632,VPO4,-2.694719098690477
mp-779783,Li4MnFe3(BO3)4,-2.373748520122126
mp-540951,Na2Sr(PO3)4,-2.809370941122633
mp-30489,La2Cd17,-0.136216072368416
mp-782643,Li5Mn6(BO3)6,-2.4804270528357972
mp-699266,K2MgH8(SO6)2,-1.8379698697800002
mp-759172,TaSb3O8,-2.270804531861111
mp-867181,SmMgHg2,-0.45963566375000203
mp-16969,Lu2SiO5,-3.863396421979168
mp-642238,Y6AgTe2,-0.7489502063888861
mp-9489,NaSmTiO4,-3.348860017101805
mp-764502,Li3Fe4(BO3)4,-2.302062820072463
mp-9951,MnNbGe,-0.324080602088124
mp-778594,Na2V6O15,-2.340349007728636
mp-851029,Li4Ti3Ni3(SnO8)2,-2.341632898333333
mp-571540,ZnCl2,-1.289770749722222
mp-772822,Li3Cu3TeO8,-1.474579158444443
mp-5992,LaB2Ir2C,-0.5747661847222211
mp-21194,NdGeRu,-0.7298105841666661
mp-774523,Li3Sb2(PO4)3,-2.432997072946428
mp-975596,PuIrO3,-1.077175328749997
mp-976935,Ni3Hg,0.197228745
mp-781753,Li3CuP2O7,-2.404669163406593
mp-560649,KLa(PS3)2,-1.316112772903571
mp-5694,NaHoS2,-2.13508399015625
mp-769207,Y2(SeO4)3,-1.988653393648896
mp-707473,InP(H2O3)2,-1.87365030937996
mp-974426,Re3Sn,0.5487435850000041
mp-505467,YSiPd,-0.996380371666667
mp-756452,SmDyO3,-3.858546332833333
mp-15319,Lu2C3,-0.26600584916666703
mp-2250,ZrNi2,-0.411984966666667
mp-569178,HoTlSe2,-1.605807920781245
mp-5306,Nb4CrS8,-1.3976660511538461
mp-867868,Sm2AgIr,-0.5791798606306311
mp-767556,NaTiPCO7,-2.639933244941409
mp-22694,LiPPbO4,-2.501715246139455
mp-6110,Sr2YSbO6,-3.043414022
mp-776762,LiVF5,-3.077308723333333
mp-559635,Sr3CaIrO6,-2.712270573636364
mp-866668,Rb2SbBr6,-1.4896003472222221
mp-561018,Na3Sc2(BO3)3,-3.016048803331642
mp-561536,NaMgBO3,-2.7456657742576622
mp-560036,Li2Ca3Be3Si3(O6F)2,-3.344832116266667
mp-850985,LiFeP2HO7,-2.322515072614087
mp-1925,ZrS,-1.593786353749999
mp-770540,Mn2PO5,-2.413511157250617
mp-975912,Mo3H,0.8501788037499971
mp-849554,Li2Mn3(BO3)3,-2.427620649732929
mp-19067,Mg3V6(FeO6)4,-2.31892518554054
mp-505527,Ti5Si4,-0.808110990370371
mp-540193,LiMnP2O7,-2.519549428231826
mp-625406,La(HO)3,-2.234023551964285
mp-780181,Na2Cr4O13,-1.647400739618875
mp-218,Sm2O3,-3.86195246725
mp-24733,NaZnP3(H4O5)2,-1.7411578655025162
mp-756587,TiO2,-3.390097015694445
mp-3949,K7LiSi8,-0.058595948692708004
mp-555234,RbSbBrF3,-2.511351812916666
mp-30232,Tb3SiBr3,-1.62798025
mp-773068,LiZr2(PO4)3,-3.159846414570106
mp-436,SmRh,-0.728297282499998
mp-22284,SrInPt,-0.761655913055555
mp-865211,TmInRh2,-0.7958948091666671
mp-778879,LiV2OF5,-3.034739145648148
mp-23507,InSn2Br5,-1.080880714583331
mp-29542,K4Bi2O5,-1.687838196727276
mp-38695,LiTbSe2,-1.9132416411718722
mp-14241,Tl2SiSe3,-0.7155503406163201
mp-684965,ZrSe,-1.144776089843752
mp-21318,PtPb2,-0.170389376666662
mp-762507,Li2CrNiO4,-1.9583337408333341
mp-778739,LiCu5(PO4)2,-1.624150295476189
mp-766919,Li8MnCr3O12,-2.137914777274904
mp-31083,PrSi2Ru,-0.7902706516666661
mp-780499,Li2MnFe(BO3)2,-2.417736865660918
mp-3010,Rb2TbF6,-3.360321756296295
mp-600063,SiO2,-3.2553963137500013
mp-1777,Li15Ge4,-0.32767289421052603
mp-849718,Na2Ti4O9,-3.20994828040613
mp-505576,Zr6Al7Cu16H9,-0.353043361348683
mp-39260,Na2CaPO4F,-3.000345259600164
mp-22048,Pt2PbO4,-1.119710785000001
mp-14410,Tl6TeO12,-1.202291198771932
mp-24646,NaAlBP2H3O10,-2.495116093532316
mp-1019361,ThSbTe,-1.247597982222224
mp-22339,ThCoSn,-0.5246538094444411