material_id,formula,formation_energy
mp-18654,Cr3Ga4,0.011925793333335
mp-7427,Ba(ZnAs)2,-0.6732129104999991
mp-1019546,BaY4Si5O17,-3.6168604677777783
mp-7067,Ca(CdAs)2,-0.569298998999997
mp-743601,CaFeSn(PO4)3,-2.651234257718227
mp-556434,AgBi(PS3)2,-0.33882521078273803
mp-850970,Co2O3F,-1.306400923333332
mp-22906,CsBr,-2.051713427327584
mp-1013735,Ca3Bi2,-0.6451150735196161
mp-504,CuS,-0.27765523557291705
mp-559558,Cu3P8(S2Cl)3,-0.5457013773571421
mp-531527,Ba3Ti20O40,-3.480469158201059
mp-608516,CsGaCl4,-1.938585905775863
mp-36100,Ca(SmS2)2,-2.361943987857144
mp-18206,Co2As,-0.085569199027774
mp-3601,BaUS3,-2.022008931999984
mp-23370,CuW3Br7,-0.799489815113635
mp-567510,BaSn2,-0.5843012333333311
mp-554590,Cu3B7BrO13,-2.276922489548611
mp-29564,Ba2Mg3Si4,-0.30904385166666404
mp-19403,Ba2CaMoO6,-2.9021457209999992
mp-19491,Ba2Ni(PO4)2,-2.9179544370604393
mp-14501,Ba(As3Pt2)2,-0.657548921818193
mp-30198,Ba4Ga2O7,-2.763311765641025
mp-560303,BaCa2C2(O3F)2,-3.033899704230769
mp-570482,Ba(AlGe)2,-0.39657781400000003
mp-581749,CsTm2Cu3Se5,-1.310480808761267
mp-34976,CeOF,-4.0010658
mp-28473,CClF3,-1.4564342765
mp-12277,CaAgP,-0.8588143732142851
mp-650741,Cu4Mo5O17,-1.613789706923076
mp-2750,Cr2Te3,-0.46550123049999703
mp-505368,As2Pb3O8,-1.733542170769229
mp-27805,Ba3SiS5,-2.004269563611108
mp-1013713,Ba3BiP,-0.15086505492857002
mp-22713,Ce2Ni2Sn,-0.502317038999996
mp-675682,Al11NO15,-3.247849188518518
mp-17621,CsReO4,-2.355085149525862
mp-28926,Ba5(TiN3)2,-1.1411264974358941
mp-561443,Ba3(PS4)2,-1.560794823598889
mp-560633,Al2SnCl6O,-2.08123727425
mp-17304,Ba4Ru3O10,-2.2903073755882373
mp-758948,Cs2H6CO6,-1.603478866120689
mp-639306,CeBC,-0.47792558358333004
mp-505229,Al3FeSi2,-0.23219943958333203
mp-3487,Ca3(PO4)2,-3.284322651483516
mp-4262,BeAlB,-0.052399171388889006
mp-29087,Ba2(SnSb2)3,-0.5219400047727271
mp-772156,ErAsO4,-2.852667687083339
mp-558235,CaTaF7,-3.842228088222222
mp-11143,BaCu9Si4,-0.171180671071428
mp-777481,Ba6YBr15,-2.430324402954545
mp-504852,Cs2Na3InO4,-1.613931031761493
mp-676499,Cu6PbO8,-0.800659657999998
mp-23373,BaZnCl4,-2.268066550833335
mp-605503,CrP3(HO5)2,-2.370586892745535
mp-984724,Ba2TlZn,-0.29199189083333404
mp-753314,Eu2SeO2,-2.750813044468752
mp-2618,DyAg2,-0.318310541666664
mp-11851,ErCoSn,-0.483224094999998
mp-23204,FeCl3,-1.091268719999999
mp-29222,Ba2Si3O8,-3.377933791730798
mp-697022,Ca6Si2H6O13,-2.7403063049074072
mp-27897,Ba(NO2)2,-1.476445576428571
mp-26594,BiP2O7,-2.303999970178571
mp-766288,Ba2CaI6,-1.9632047652777782
mp-862689,Cs3Rb,0.065904689633621
mp-556038,Ba3In(BO2)9,-2.956924353360215
mp-542806,Ce3CuSnSe7,-1.547657378450519
mp-673801,Ca3NdF9,-4.159132382371798
mp-571472,Ce3CuSiSe7,-1.594270830533853
mp-3848,BaGe4O9,-2.3543098241666662
mp-553924,Ag4PIO4,-1.227746526880951
mp-569892,Ca9B2(CCl2)4,-1.5762510293478251
mp-4454,CeCo3B2,-0.47751153305555505
mp-17956,Ca2UO5,-3.631797415312498
mp-4865,Er(NiGe)2,-0.6756636759999961
mp-555477,Ag2H3IO6,-0.7965391460069441
mp-631323,HgOsPb2,0.863302931249997
mp-572271,Cs3P7Pb2O21,-2.578890915195924
mp-510710,Cs2AgSbS4,-0.897385242622125
mp-561584,Gd2GeO5,-3.29522065937501
mp-30961,Ca7Tl3N2,-0.7544589864583331
mp-619510,CsHg2Br5,-1.157373246206897
mp-17160,DyPtF7,-2.817237958055554
mp-795621,Ca2CrO8,-1.6145898036363642
mp-771978,Ga2HgO4,-1.6849968378571432
mp-761415,CuNi3O4,-1.084837146875
mp-20908,Ce(BC)2,-0.521316082000001
mp-555231,Ba3Bi2(PO4)4,-2.890821084742856
mp-697913,HfP2(H3O5)2,-2.263450094304512
mp-559586,BaNa2Nd2Si4CO15,-3.179911402910345
mp-29052,Cd(W3Br7)2,-0.903951352738094
mp-20034,CaPb,-0.520882229999998
mp-555284,Ba2NdAlO5,-3.3474437825
mp-4666,CdSiP2,-0.272582178988093
mp-557752,CsHSO4,-1.950974333343596
mp-754524,CeTiO3,-3.497674579666666
mp-973335,Hg2H6CN3Cl5,-0.730141330441177
mp-19224,Ca3MnZnO6,-2.666855457993731
mp-22942,BaBiO3,-2.233409576999999
mp-720300,H4CSN2Cl,-0.513696741944444
mp-3563,Ba5Nb4O15,-3.271554933958334
mp-559551,Cu4Bi4S9,-0.34131741178308905
mp-1900,CaAs3,-0.6725508368750001
mp-643387,AlH2PbO2F3,-2.551256586388889
mp-766351,Ba2CaI6,-1.950918339444444
mp-20835,CeSnIr,-0.8519636916666711
mp-6616,Ba2HoCu3O7,-2.190162129230768
mp-641065,HoMn4(CuO4)3,-1.843333252836206
mp-766301,Ba2CaI6,-1.95396665
mp-1013547,Ca3P2,-1.117384237190475
mp-28472,Er10Ru10C19,-0.26138505474359003
mp-766276,Ba2In2O5,-2.348228508981481
mp-721851,BHO2,-2.252494281249999
mp-558380,Cr2F5,-2.944371399285714
mp-2216,Ce2Co17,0.092262615263157
mp-754177,CaGd2O4,-3.637182070714286
mp-770737,Ga2WO6,-2.188273766666665
mp-11879,BaNiSn3,-0.47532961299999804
mp-542302,CuBi3PbS6,-0.6218811781818181
mp-685609,Cs10(Mo2N5)3,-0.5836147561790891
mp-1784,CsF,-2.833271874999999
mp-760205,Ba16S16O59,-2.6703504380769223
mp-676751,Cr5AgS8,-0.905970127976189
mp-6798,Ba2NaReO6,-2.688152365387931
mp-2167,DyAg,-0.32308649166666403
mp-1013704,Ca3BiSb,-0.48856588200000006
mp-705013,CrBi8O15,-1.6820955546875
mp-631505,BeCuBr,0.5713827866666661
mp-684668,CaC2,-0.06951267666666701
mp-999189,Fe3Ni,0.044024415000000004
mp-985702,AgPb3,0.092907068333339
mp-22620,CeZnSbO,-1.868047379999999
mp-510547,Cu2H3ClO3,-1.062027649305555
mp-1264,CdAu3,-0.14286626500000202
mp-770977,Ca2CeO4,-3.5070608728571413
mp-20051,CeBPt4,-0.856721432916666
mp-642661,BaH2Cl2O,-2.094613305416666
mp-548469,BaZnSO,-2.078282849375
mp-623028,Cs2NbAgS4,-1.290435189497126
mp-11296,ErCd2,-0.268625276666665
mp-570081,CuI,-0.34341796833333205
mp-22688,CuSeO3,-1.08281089171875
mp-20546,Ba2In2O5,-2.422391895925927
mp-16053,CuSiO3,-2.249616019
mp-626291,Ca(H8O5)2,-1.362818898888889
mp-541375,CdH4Br3N,-0.854696339722221
mp-22095,Ga2Pt,-0.581049438333334
mp-28911,BaReH9,-0.418383138522722
mp-29113,Ce3(Al2Si3)2,-0.46175634230768703
mp-639496,EuIn2Au,-0.526435019583333
mp-3704,Cs2Mn3Se4,-1.202847188299807
mp-2515,CrPt3,-0.342668942500004
mp-15840,BaBPO5,-3.116866394434523
mp-11176,Ca3(SiIr)4,-0.8772608254545441
mp-677406,CuH12N2(Cl2O)2,-0.9073141247619051
mp-4985,Dy(MnSi)2,-0.675646738793102
mp-7693,BaTm2F8,-4.428986136363634
mp-29538,BaGdCl5,-2.813930140714284
mp-989553,Cs2TlGaH6,-0.11460608176436801
mp-984767,DyHoIn2,-0.44030456249999606
mp-581786,Cu3Sn,0.033498218750001
mp-850049,CoS2,-0.452915192708333
mp-28855,Cd4OF6,-2.283292852727279
mp-32868,Ag2S,-0.061040652048610006
mp-997006,AgPtO2,-0.672532186666665
mp-1008506,BaGaSiH,-0.43715596968749904
mp-761128,BaNb5O8,-2.7973198200000002
mp-6687,Ba2HoSbO6,-3.099882216499999
mp-7762,CdGe2O5,-1.93013044375
mp-28467,Cs2Cu5Se4,-0.5795965455681801
mp-241,CdF2,-2.457565739999999
mp-32715,B36O5,-0.6709425423170721
mp-570564,Ce3CuGeSe7,-1.5498084834505201
mp-558273,Ca3SiO5,-3.388859243518518
mp-30463,BiPd3,-0.233392613749998
mp-570152,Co2(SnSe)3,-0.542088130253905
mp-760323,Ce5O9,-3.941403542499999
mp-41219,BaLiPrTeO6,-2.610438096166666
mp-15077,Ag7AsS6,-0.12576972156249902
mp-18792,Ca3(CoO3)2,-2.391797552272727
mp-758433,AgHg,0.085358954166665
mp-2150,BaTe2,-1.474518219444442
mp-627557,CdI2,-0.826804184740742
mp-10373,Cr3PdN,-0.258863485749992
mp-694888,Ba8Mn8O21,-2.492860230768872
mp-28508,Cd(HO)2,-1.246465456499999
mp-24090,BaH4(IO)2,-1.5354858138888892
mp-756837,Ca4Zr3TaO12,-3.557799488366666
mp-510642,CuNi2(PO4)2,-2.026643345329671
mp-14969,BaErCuS3,-1.958185137916666
mp-545500,BaSbClO2,-2.501479447
mp-707983,Ca2MgB2H16(CO9)2,-1.890078684593496
mp-5331,AlPO4,-3.12717220299603
mp-5827,CaTiO3,-3.491619559666667
mp-866521,Ca2SnS4,-1.54161022892857
mp-557720,CeF3,-4.278305633749999
mp-16488,Al9Co2,-0.29702967454545304
mp-20991,BaPbO3,-2.1081123880000012
mp-567377,Ba(AlSi)2,-0.22000522199999903
mp-5046,BeSO4,-2.302504960416666
mp-772189,Bi3Ir3O11,-1.443432850882353
mp-16445,CsSm2CuSe4,-1.726521419878771
mp-557856,BCl(OF2)2,-1.947817728020833
mp-28512,Ba(ClO3)2,-1.250104899999999
mp-3751,AlTlF4,-3.2540289300000023
mp-554766,AgP(XeF5)2,-1.801092190807823
mp-1273,CsGe,-0.205434222327586
mp-3545,CeMgSi2,-0.47950913125000005
mp-763905,Co6O5F7,-1.695749143333333
mp-542417,Cs2MgH12(SO7)2,-1.730740225461623
mp-571264,Ca5Au4,-0.800555118333335
mp-561561,Cs2KRhF6,-2.639720883656034
mp-23237,BiF3,-2.621525922500002
mp-645687,CsTi(PS4)2,-1.03751825977285
mp-743810,CsVZn(PO3)6,-1.594593068981938
mp-12777,AlCu3,-0.180917327499999
mp-4019,CaTiO3,-3.556087157166666
mp-862698,Ac2SiAu,-0.6415023025000011
mp-675410,Ba2U2O3,-2.143351144999998
mp-4473,Ba(CuSe)2,-1.070468024437499
mp-568172,Ca3N2,-0.9217641895
mp-552191,Ba2TbBiO6,-2.826584474666666
mp-17908,Ba2TiS4,-2.099204554761902
mp-639662,CrF5,-2.309802503333333
mp-640389,Cs2Th(PS3)3,-1.226403651715926
mp-7832,BW,-0.35971011500000205
mp-29177,BaTe2F10,-2.907432135641024
mp-183,CeCd,-0.166636096250002
mp-758475,Li4(CuO2)3,-1.5423745567948721
mp-14488,Li3In2(PO4)3,-2.583733810488095
mp-569136,K3Cu11Te16,-0.44867520261388705
mp-1018675,DyS2,-1.9085436385416652
mp-2361,Hf5Al3,-0.34032690062499704
mp-570158,KRb3CdCl6,-2.067713574522727
mp-1018157,CrN,-0.678866234374999
mp-777420,Fe2Ni3Sb(PO4)6,-2.147953162718254
mp-2861,CaTl,-0.512651260000001
mp-865855,Ac2SiPd,-0.6024802275000021
mp-10932,ErSF,-3.323758545381942
mp-763190,Li2VO2F,-2.5893394661111113
mp-27779,Hg(Mo3Cl7)2,-1.031887303452381
mp-427,FeAs,-0.19770720125000002
mp-636946,Fe6Ge5,-0.09174235227272601
mp-7928,K2PtS2,-1.110685690624998
mp-32755,La2Te3,-1.857414943749999
mp-23279,KBi2,-0.39144363958333805
mp-27710,CrB4,-0.256798863999999
mp-20036,Gd3S4,-2.262120790892855
mp-989618,Cs2RbGaF6,-3.055141840431035
mp-776870,Li2V3SnO8,-2.429232301190476
mp-1018147,EuPd,-0.7095176075
mp-644925,Cs5Bi(MoO4)4,-2.130723742049071
mp-779987,Fe3OF5,-2.364060965555555
mp-676799,Ag8GeTe6,-0.044082224166659
mp-774482,KLiTi2(PO5)2,-3.019484092752232
mp-769637,Li5Ti6FeO16,-3.06833766970238
mp-975059,MnTl3,0.390205288017241
mp-676629,Sm2Th8O19,-4.237734716724137
mp-772416,Li2Ti3Sn(PO4)6,-2.893720924431216
mp-2389,NdMg2,-0.080560512499999
mp-31442,Li2InRh,-0.41734936333333206
mp-19871,PbAu2,-0.065584006666663
mp-505179,NaH6BrO5,-1.1671957610676391
mp-555933,Na2P2PbO7,-2.520906898087027
mp-19015,VCrMoO7,-2.191792862
mp-496,SrSi2,-0.40771882666666903
mp-849424,LiCu2P3(HO5)2,-2.021118499986772
mp-3534,Ge2Sb2Te5,-0.32449902148148
mp-34121,LiSbS2,-0.9160421270833321
mp-756400,NdBiO4,-2.408715061249998
mp-614,NaO2,-0.8870194621264361
mp-977565,NdBiAu2,-0.611393799374999
mp-34903,MgGeP2,-0.29756918232142704
mp-2910,KAlF4,-3.644089839958327
mp-38194,YOF,-4.158211506666666
mp-16163,Pr3ReO8,-3.224797653750008
mp-33363,LiYS2,-2.082547178333333
mp-7823,V2NiSe4,-0.765021713178579
mp-29966,NOF,-0.8303088391666671
mp-972244,Tm2ZnGa,-0.544842446250005
mp-972981,K,0.006670691249999
mp-8772,ScB12,-0.21951619653846202
mp-23758,KNa(BH4)2,-0.41780548531250006
mp-696989,NaPH5C2SN3O4,-1.116825209104245
mp-755245,LiCuPO4,-2.165215026139455
mp-677725,SrLa11Mg3Ga9O34,-3.099192539956897
mp-640889,Tm(CuTe)3,-0.6185059496428661
mp-9989,Nb2AsC,-0.6155329043749991
mp-30178,Mg2Al5Cu6,-0.235028325384621
mp-770690,Mn3TeO6,-1.893358661045978
mp-657,YbZn2,-0.44813976333333405
mp-23400,In(IO3)3,-1.039234119358974
mp-972495,USn,0.042649132500003004
mp-973203,Sb3Mo,0.570996708333336
mp-21420,Nd(MnGe)2,-0.46743199267240904
mp-696762,TlP2H5O8,-1.908877184304315
mp-861961,TiZnRh2,-0.7726216583333261
mp-849511,VO2,-2.458837664
mp-510688,HoCoSi,-0.7000273674999961
mp-28360,Na3CrCl6,-1.790036133499999
mp-28352,YSiRh2,-1.005028489999998
mp-975519,Rb,0.016627212499999003
mp-880,Pr2Fe17,0.056461181403509
mp-1570,YFe2,-0.048231089999999005
mp-836,TbZn,-0.385203347500002
mp-978546,Sc3Sb,-0.57182036
mp-862656,ErAl3,-0.45782841633333005
mp-775372,Li5SbS,-0.928705797380952
mp-558568,Rb2CdSiO4,-2.312390830312499
mp-607464,Re2Cl5O4,-1.5894442077272721
mp-541609,Y2Ge5Ir3,-0.7146666109999991
mp-30295,W6CCl18,-0.901346643199999
mp-23101,Nb2Bi2PbO9,-2.3316806425
mp-31466,Er5Bi3,-0.7638296814583321
mp-761780,LiCoPO4,-2.329995071139455
mp-31095,Er2FeSi2,-0.6912688439999981
mp-677080,K6Ba3Ta12(Si2O13)4,-3.286606347055556
mp-1018012,TiFeCoGe,-0.46164263208333306
mp-10115,ThB2Ir3,-0.756167947500003
mp-622295,NaMo(PO4)2,-2.470794032555419
mp-16520,NpAl4,-0.323540995749999
mp-559154,Ti4Bi2O11,-2.964461737843135
mp-34713,Na(Pr2Se3)4,-2.142108493016438
mp-6825,Ho2Si4CN6,-1.377011979999999
mp-23263,LaBr3,-2.423042803749999
mp-674423,Sr20Ta8O39,-3.330132649308458
mp-22050,Hf2In5,-0.24624997642856802
mp-555283,V3S,-0.6714042128125001
mp-556516,Tl2S,-0.505116372129634
mp-1018683,DySe2,-1.7907374760416652
mp-554947,NaSiBO4,-2.904036032697045
mp-573891,K2Ag4Se3,-0.6632701742442101
mp-27181,KAuCl4,-1.318467975374999
mp-601210,H5C2NO4,-1.094974769062499
mp-770973,Li24MnCr11O36,-2.223859388304598
mp-768082,Na5Ni2P2(CO7)2,-2.15409049444729
mp-763013,Fe2OF3,-2.287127409166666
mp-760075,Ti19O30,-3.330664134761904
mp-972784,SiTc3,-0.125107721874996
mp-866108,HfZn3,-0.22893545625000303
mp-23513,K2PtCl6,-1.373397363611109
mp-864970,MnSiTc2,-0.439775492370692
mp-6844,KLi3Si12(SnO15)2,-3.035673169734375
mp-28592,Li7Br3O2,-1.9232225231944442
mp-4718,NdTaO4,-3.6734060133055753
mp-4974,La2Zr2O7,-3.9093342250000003
mp-780194,Li3Mn4(BO3)4,-2.459037022756122
mp-770859,Mn3Co3(CuO8)2,-1.173627785574712
mp-557679,KNaSi2O5,-2.906399697347701
mp-865119,NaPrHg2,-0.44250345166666705
mp-541894,Pr2Co3Ge5,-0.565251447833333
mp-2136,Sb2O3,-1.751737501999998
mp-504341,Sb(PO3)4,-2.358650416974789
mp-510133,Sc(Fe2P)2,-0.703504854183673
mp-771890,LiSnAsCO7,-1.896590105530302
mp-768963,SrLaCl5,-2.648775178214279
mp-774609,Na5Li3Ti5O14,-2.909459797539378
mp-720110,KRe3Os3(Se4Cl3)2,-0.9957400468333331
mp-977385,NpH3,-0.573973663749999
mp-6610,K3Cu(CN)4,-0.331191081684026
mp-5364,YbBO3,-3.42637511375
mp-25257,Li15Bi4(PdO10)2,-1.799082366585366
mp-530545,In4GeSe4,-0.634701106921295
mp-684966,Tb8O13,-3.726696077301588
mp-777615,Sb2(SO4)3,-1.7599323115441172
mp-28840,Y4RuI5,-1.274698732000001
mp-567614,Tb2Co2I,-0.6650542396666671
mp-572822,TiO2,-2.975623215277778
mp-30223,La2Fe2I,-0.568422681000002
mp-861904,La3AlCrS7,-2.005301981875
mp-5335,U2PdS4,-1.594762136607138
mp-556655,Li2AlBO4,-2.9125574113541663
mp-31321,La(C2N3)3,-0.065848606484374
mp-867788,TaGaOs2,-0.415546201833329
mp-30548,TlBF4,-2.786053656249999
mp-24742,K2MgH8(SO6)2,-1.83794055618
mp-758096,SbOF3,-2.302541044
mp-753863,Li2Ti2S5,-1.514511436759258
mp-542843,MgB2P2H8O13,-2.128399830966118
mp-764936,Li8(FeO2)5,-1.7977850711594212
mp-30571,Tl2Au,-0.045777170000008006
mp-780154,Li4FeO3F,-2.190993407037038
mp-759116,YbAlO3,-3.66203571625
mp-28266,P2Pd,-0.42824703142857
mp-680169,Na21S7Cl(O14F3)2,-2.348332293938605
mp-639228,Tb2Mn3Si5,-0.6246459048448281
mp-753081,Li3(CuO)4,-1.299958595454544
mp-962065,SrCaSn,-0.054899408333332005
mp-20777,SmCoGe,-0.5922703925
mp-770728,Li3CrO4,-2.105683651875001
mp-975997,NaLi2Pb,-0.24169402451149302
mp-3372,Rb2SO4,-2.265059515357137
mp-8119,PrCuSi,-0.5713281505555551
mp-600428,Mn3Sn2,0.07212195174137401
mp-27358,Se2O5,-1.022062649955356
mp-20791,MnVAs,-0.24586180347701203
mp-673078,SnPO4,-2.235289159107143
mp-863408,LiSiBiO4,-2.47689314202381
mp-569337,Na4Si2Te5,-0.787160347054596
mp-1020059,LiGe2N3,-0.50848024388889
mp-770693,Li3MnAl2O6,-2.70035396378592
mp-17706,Zr5Ge3,-0.8784664887500031
mp-18799,YbVO4,-3.304186793333334
mp-606511,La(GePt)2,-1.063904421
mp-23366,Rb2CoBr4,-1.4916028921428581
mp-18089,Sr2HoCu3(PbO4)2,-2.074358707499999
mp-975794,Li3Be,0.24167899125000003
mp-686712,InAgSe2,-0.42096476578124903
mp-753626,Li2NdPCO7,-2.744965630317459
mp-2574,ZrO2,-3.786492631666667
mp-841,Li2O2,-1.650170236666666
mp-9634,Na3AgS2,-1.024525277604166
mp-30805,SrNiSn3,-0.43511277900000206
mp-865101,NaLi2Bi,-0.602806837083335
mp-631589,VN2(Cl3O)2,-0.8791386554545461
mp-640880,Nd2(Al3Co)3,-0.5133943392857161
mp-9910,K2Pd3S4,-0.832547670972221
mp-557649,K2Ce(Si2O5)3,-3.235151624145834
mp-675531,NaBiS2,-0.847494942656251
mp-2845,SbPt,-0.44591140249999406
mp-1215,Ti2O,-2.035562333888889
mp-649080,Ti2SCl12,-1.584066879611111
mp-15222,Rb2NbCuSe4,-1.192566984296874
mp-571499,TaIr,-0.6471931228333381
mp-867159,SmDyMg2,-0.072119819166663
mp-9682,Na3AlSe3,-1.288684136026784
mp-21029,Li2InPd,-0.520561748333333
mp-27375,Tl4HgI6,-0.7609316082575791
mp-21887,NdInPd,-0.7791027225
mp-763983,V2O3F,-2.6715221825
mp-757290,MgH12SeO10,-1.428346899264322
mp-558478,La3NbSe2(O2F)2,-3.439358182265625
mp-557293,Li2CdSiO4,-2.532890937395833
mp-4895,UTeAs,-1.020022562500003
mp-976289,NaCd2Au,-0.173912735344826
mp-773502,KCoPCO7,-1.965198496535714
mp-30744,IrW,-0.295725192499993
mp-542618,Tl2Mo9S11,-0.8878050201893931
mp-976599,LiHg3,-0.17136411479166402
mp-505685,Nb2Te4O13,-2.059498487719298
mp-1474,Re3P4,-0.41948465420067904
mp-698686,Na3CaFe4(SiO3)8,-2.587061672853448
mp-558318,Rb2TbGa(SiO3)4,-3.141671946583334
mp-772749,Ti17(NO4)6,-3.054764493971631
mp-30167,Rb3Os2Br9,-1.1720779405357131
mp-1018899,PrSbPd,-1.067659837222216
mp-4824,NaZnP,-0.518619665992063
mp-10136,Ti2ReB2,-0.8309063155
mp-547017,LiAlAs2O7,-2.214197438484848
mp-3653,Mg(SbO3)2,-2.223938991666667
mp-17297,Na2GeF6,-2.909913826296296
mp-781013,Li3V2P4(HO8)2,-2.531050579113756
mp-8756,KLiSe,-1.363654572642361
mp-558456,Hg3Se4O5,-0.822829030989585
mp-756953,KSbPCO7,-2.132147201081169
mp-570421,Sm2B5,-0.622048077857144
mp-1018030,Sr2SO,-2.510918483124999
mp-30980,NaYO2,-3.115740750969827
mp-569435,KBi(PSe3)2,-0.679295181559821
mp-697734,MoP4O13,-2.296009982420636
mp-989523,Rb2NaAsF6,-2.798271798387934
mp-12862,LuTaO4,-3.749738242333329
mp-642350,KLa(PO3)4,-2.869416556990079
mp-764685,LiVOF3,-2.9589694505555553
mp-23784,NaB(H4O)2,-0.777061210149664
mp-1014261,IrO2,-0.997662419999999
mp-753202,Li5CuF8,-2.766525747380952
mp-780156,Li5Mn6(BO3)6,-2.481358991978654
mp-680676,K2Dy4Cu4S9,-1.654672769929822
mp-2293,MnSe,-0.9463613767726281
mp-976829,NaDy3,0.306462820862069
mp-4539,Ho(CuGe)2,-0.48412519499999807
mp-505701,NaP2H5O8,-2.026037591682189
mp-752643,NaTi2O4,-3.098568724006566
mp-22009,PbSe,-0.5990207695312431
mp-770768,Na6Fe2B4AsO16,-2.122821876463535
mp-999391,NbFe3,0.029579722500001
mp-23870,NaH,-0.292902834375
mp-770756,Li3SiSnBO7,-2.600851788397435
mp-13546,Y2Ge2O7,-3.034714023409097
mp-971,K2O,-1.233878036499999
mp-30469,TlBi2,0.015296066666669002
mp-626483,H4SO5,-1.457352149062499
mp-760468,LiSi2BiO6,-2.714751318833334
mp-1627,Mo2S3,-0.773987577687501
mp-14665,KNd(SO4)2,-2.549136384770833
mp-12351,PrTe3,-1.150842211666667
mp-30517,Sr3Sn13Rh4,-0.5149543454999921
mp-7798,MgGeN2,-0.760936786249999
mp-973088,MgInAg2,-0.138226363749998
mp-756850,LuAlO3,-3.706706327666666
mp-1008987,IrN,0.5762525875000041
mp-555606,Na10Be4Si4O17,-2.711822081108374
mp-27506,K3W2Cl9,-1.476615365267859
mp-763619,Li2Fe(SiO3)2,-2.702574297424242
mp-782725,MnOF,-2.300923648477011
mp-999124,TbPd,-0.9520247299999981
mp-765457,LiMnF3,-3.006291066752874
mp-7582,GeS2,-0.6457689883333321
mp-567830,Sm(CrSi)2,-0.311007634500001
mp-4809,Ga2HgS4,-0.826619146785716
mp-22619,NiP2,-0.40791869115079205
mp-27138,K2PdBr4,-1.483386717785713
mp-12693,Mg2Rh,-0.401837599999999
mp-850230,Mn9Zn6Si4(SbO14)2,-2.2917420620689652
mp-554955,MgCrF6,-3.114523169375
mp-13595,Rb2UF6,-3.5959559127777743
mp-554342,Hf3Cd3AgF20,-3.311825106728395
mp-676338,MgIn2O4,-2.271007043333332
mp-554240,NaCa4(BO3)3,-3.146121006698783
mp-10694,ScF3,-4.21761559875
mp-558514,RbZrCdF7,-3.423179316249999
mp-669465,Te2S4(NCl3)3,-0.22468316160590002
mp-23104,Pb2ClOF,-1.929361382999999
mp-862376,Sc2CuTc,-0.25305230875
mp-27996,H2SeO3,-1.213629243723959
mp-972326,TcPt3,-0.127022225000004
mp-768738,Li3Bi(BO3)2,-2.419378118611111
mp-5178,V2CuS4,-1.042791715
mp-568788,La2AlNi9H2,-0.35906842160714303
mp-759396,LiBi3(P3O10)2,-2.438906812373015
mp-974457,Ru3I,0.795411171249999
mp-4651,SrTiO3,-3.551662291666667
mp-11928,Pr2AlCo2,-0.18597026738126202
mp-15050,Pr(PdO2)2,-1.931393010952378
mp-978016,LaSn2Pd,-0.7881116212500011
mp-754114,SrSc2O4,-3.706797714285714
mp-19922,LuNiGe,-0.815416234722219
mp-2885,Ga(MoS2)4,-1.07180620826923
mp-978094,NdHo3,0.045882151875002004
mp-767063,Sn(PO3)2,-2.36937263297619
mp-7522,Th2SbN2,-1.765673437499998
mp-735545,Rb2FeH2Cl5O,-1.454564026136363
mp-31288,La5Pb3I,-0.797210635555562
mp-989191,SbOF,-2.008799074999999
mp-770645,Li8HfO6,-2.451514421444443
mp-559182,P2IrClF6,-2.350067352928572
mp-675651,MgPS3,-1.052409944428569