material_id,formula,formation_energy
mp-865516,YPaRu2,-0.36557503750000103
mp-30171,Ho4Ge9Ir13,-0.6609993740384761
mp-29118,Ho3Ge3Ir2,-0.9234033056249971
mp-369,TbAl3,-0.47728138749999904
mp-770800,Li4Ti3Nb5O16,-2.857377640833333
mp-20687,Sr2LuRuO6,-2.9030109491666662
mp-1009493,NpN,-0.9943796837499971
mp-543011,ZnS,-0.9500676567633921
mp-764224,Li2V2O5F2,-2.542927888333333
mp-22551,UP2(PbO5)2,-2.768167373285713
mp-7535,Li5AlO4,-2.492909137666666
mp-504567,Mn3(CuO4)2,-1.516291251830238
mp-770907,Gd2W2O9,-2.875526185000001
mp-760786,Li2Cu3F11,-1.974703829770833
mp-972408,UBiTe,-0.834864838333345
mp-866281,Er2PdRu,-0.705442597499997
mp-18765,Na2NiO2,-1.299628524551723
mp-766888,Sb9PO25,-1.769379397704082
mp-19315,Sr2MnWO6,-2.767879497793102
mp-16304,YPPt,-1.515127039325397
mp-778509,LiVF3,-2.9937661151666672
mp-1780,ScRh,-1.031211102499996
mp-2486,UC2,-0.23832087833333002
mp-978266,Mg2ZnPt,-0.5081330124999991
mp-754768,Tb2Pt2O7,-2.449571400757576
mp-777488,Li3FeF6,-2.9555191985
mp-1009878,ZrC,0.20576350750000202
mp-26172,Sn(PO3)3,-2.394810706456045
mp-672374,UNi2Sn,-0.21166450624999703
mp-754462,SbTe2F6,-2.134749707037036
mp-777624,Li9V3(WO4)7,-2.24515610212766
mp-978984,TmMgPt2,-1.051589876250003
mp-605333,In2Cu2O5,-1.480011692037037
mp-759680,LiSi2BiO6,-2.735161069833334
mp-557802,K2Be(Si2O5)2,-3.098725148794117
mp-775820,Ti2N2O,-2.129896608833334
mp-973741,LiHo3,0.198104051666668
mp-559655,PNF2,-2.046665011994049
mp-505319,PtF6,-1.151997960357141
mp-763002,Fe4O3F5,-2.136447929166666
mp-766238,Zr2N2O,-2.333467198749997
mp-30342,HoInAg2,-0.35346281624999604
mp-980053,YbPrAu2,-0.8702825391666661
mp-555464,KRb2NiF6,-2.595287777225
mp-23837,NdH3(CO2)3,-1.75459999125
mp-867805,LiCa2Ga,-0.30047535416666604
mp-2495,PrS,-2.28349878723958
mp-639138,EuSeClO3,-2.133750323723959
mp-1020013,Li2S2O7,-2.095934573560605
mp-639682,SiO2,-3.238069981333334
mp-649470,K3Nd2(NO3)9,-1.467629293762195
mp-768422,TmHO2,-3.025795175937501
mp-3522,MgCuSb,-0.32565874499999803
mp-773089,K3Li2Nb6(PO8)3,-2.857350029535402
mp-759759,NaGa3P2(HO3)4,-2.1771621971893182
mp-977376,TbCdAu2,-0.661868024166665
mp-764589,LiFe2(BO3)2,-2.2689175599242413
mp-558099,Nb2Tl5S4Br9,-1.193089272083334
mp-642651,Yb2Ge4Ru3,-0.7121693008333361
mp-755511,Y2Hg2O5,-2.380054100555556
mp-980193,Ti2H4Pd,-0.31818234952380703
mp-772533,FePO4F,-1.899098056913266
mp-12904,HoAgTe2,-1.112067171249997
mp-2802,HfRu,-0.9023381424999991
mp-752856,Li10Fe4S9,-1.093942906123188
mp-978084,PrVGe3,-0.502769711333334
mp-372,VPt3,-0.45455101500000306
mp-770950,LiLa4MnO8,-3.345879896697456
mp-777760,TbCeO4,-3.539333601944443
mp-16804,LiCaPO4,-3.104518963044217
mp-541626,K3Nb3Ge2O13,-2.622575167702382
mp-774364,LiCrPO4,-2.502603815782313
mp-773454,Li5CoO4,-1.880889036666666
mp-504802,MgH12S2O9,-1.426755233333333
mp-623088,KTbF5,-3.4675650574642862
mp-30859,Zr9Pt11,-1.135575884833332
mp-626062,U3(HO5)2,-3.108884516166665
mp-773182,Li4Cr3Sn5O16,-2.204320371726191
mp-27687,LiP7,-0.19070094749999902
mp-7002,NaTiO2,-2.782783946178161
mp-568555,SmSi2Rh3,-1.017576474166665
mp-1908,Pr5Ge4,-0.912663095370362
mp-756137,Li3Nb6O11,-2.620458544249999
mp-17337,RbAsOF4,-2.585927445714286
mp-631555,MnVNi,0.560809612672417
mp-755205,Zr2N2O,-2.2350081055
mp-767222,LiFe2(PO4)2,-2.388461187124541
mp-769404,YSeO3,-2.499224003468748
mp-976408,Li3Ag,-0.12103026124999901
mp-862336,Sc2IrPd,-1.000160442499997
mp-556679,Na2Ca3Si3O10,-3.2176857076532572
mp-978563,SmHoIn2,-0.45725126083333206
mp-10835,RbSm2CuS4,-1.884023039062499
mp-28334,Tl4SiSe4,-0.6693635839120391
mp-15433,K2Ga2Sb3,-0.42974045832142604
mp-29489,P4SeO7,-2.002178288826265
mp-556100,Si(Sn3O4)2,-1.948193162333332
mp-570272,Tb2Mg3Ni2,-0.270373952619045
mp-11091,NdMgPt,-0.8851744997222121
mp-720461,P3H22C3N9O11,-1.105677026383928
mp-770589,Li3Al2FeO6,-2.642158604791667
mp-4628,ZrSiSe,-1.209888084114576
mp-2767,TiGa,-0.47163571541666605
mp-15642,SrMgSi,-0.358533394166666
mp-756035,LiTi4O8,-3.317378679743589
mp-769048,Li3NbS4,-1.319719705937499
mp-770581,MgMnO3,-2.289005456586206
mp-569512,SbICl8,-0.9620140745000001
mp-753605,LiCuS,-0.885041404444443
mp-768084,Li8V11O22,-2.461485562845529
mp-643776,Na2ZnH4(SeO5)2,-1.488347683286638
mp-776715,Li3Fe2F7,-2.817489420416667
mp-734123,RbSrP3(HO2)6,-2.251698166040372
mp-680671,Mg4Zn7,-0.119268809999999
mp-698587,TiNiO3,-2.576704852666667
mp-19287,NaV(SiO3)2,-2.944825122887931
mp-774382,Li2MnF4,-3.0143650238711
mp-759472,LiCu(HO)4,-1.2668992698333321
mp-770092,HfP2O7,-3.180673676928573
mp-8640,Hf,0.08898112999999301
mp-27335,NaAlSi,-0.152273453333332
mp-767341,Li2ScPCO7,-2.753752843859127
mp-13007,PrCrGe3,-0.39943659199999704
mp-510608,ZnCuAsHO5,-1.488635239861111
mp-22750,P2Pb3O8,-2.299372313791207
mp-17929,RbHo2Cu3S5,-1.464414154090907
mp-861651,Li2PdPb,-0.360940101666665
mp-675214,Rb2Bi3F11,-2.761533809375
mp-772150,Li2Ti13O22,-3.238565259864863
mp-706367,KCaP3H4O11,-2.383245658683928
mp-3318,Na2BeF4,-3.2637287621798032
mp-863722,Pm2IrRh,-0.749361968750001
mp-37859,Sr(PrSe2)2,-2.246160954226188
mp-28520,Rb2SnTe5,-0.7997832179166671
mp-343,PrN,-1.5457938252083312
mp-28728,K6Sn3As5,-0.42079515882142504
mp-768906,YBrO,-3.316152355000001
mp-30536,V5Sb4,-0.166437631111111
mp-28412,Ho2Ni12P7,-0.7705393282142851
mp-1971,HoCu,-0.2765887125
mp-14484,KNaLi2(SO4)2,-2.285478503056854
mp-568966,NdBC,-0.49376642400000004
mp-720379,K3NaP4(H2O7)2,-2.319028808334643
mp-9270,SbIrS,-0.5905719459375021
mp-12097,Sm(SiIr)2,-1.176475171999999
mp-754698,NbO2,-2.84498296875
mp-4453,TlNO2,-0.767922832083336
mp-559927,Tb2Cu(BO2)8,-2.9447367739506163
mp-30726,YHg3,-0.409519776875001
mp-682284,Zn3In2O6,-1.8462847241666671
mp-555369,SrCuH6O5,-1.534195357115384
mp-3889,NaBO2,-2.607822887636494
mp-1018121,TiPd2,-0.6480812155555521
mp-11814,Rb2Au3,-0.29863914900000105
mp-29597,LaBN2,-1.6059433945833321
mp-3896,Y(SiIr)2,-1.057520073
mp-17441,Mg2GeS4,-1.260924230357142
mp-975564,PuBO3,-2.26484911258333
mp-758201,LiTiP2O7,-2.802594094632034
mp-768137,Na2SnPCO7,-2.212731690200122
mp-758020,LiCu3(CO3)3,-1.436100701458333
mp-560189,NaLi2BO3,-2.467089902994663
mp-9610,Li2CN2,-0.8028615141666671
mp-769532,Na4V2C4SO16,-2.083024546778416
mp-22367,PdPbO2,-1.149602967499999
mp-585266,MnP2O7,-2.310911360971675
mp-680502,La10Ga5Br4,-1.057440331447369
mp-583266,MgZn,-0.057322459999999006
mp-23550,KBrF4,-1.973058777874999
mp-675436,Sm2Zr2O7,-3.665890645909091
mp-555159,Pr2O3,-3.723743323833329
mp-8800,TlCu3Se2,-0.243218631354181
mp-762248,LiSb3(P3O10)2,-2.356143440373015
mp-776502,LiTi2(PO4)3,-3.006099874662698
mp-767279,Li2DyPCO7,-2.781554743164682
mp-15939,SrAl2B2O7,-3.263411640277777
mp-974108,NiPbO3,-0.922363726999999
mp-27898,Zr3AlN,-1.117505013749999
mp-1001788,ZrB6,-0.05488467952381101
mp-530429,YZr3F15,-4.107844359473685
mp-631361,SrZr2Nb,0.7261369308333301
mp-770891,Ti3Cr3(SbO8)2,-2.528864603333333
mp-753794,Hf2P2O9,-3.392173924945055
mp-567777,La9Sb16Br3,-1.234224077678571
mp-4856,HoGa5Co,-0.46450287892857106
mp-764735,Li5Mn2Cu5O12,-1.5662035571886972
mp-780274,Hf2N2O,-2.529821675249999
mp-865568,ThScTc2,-0.198044058749999
mp-626721,RbHO,-1.512159914583332
mp-18838,K2MnSO4F3,-2.512292868175549
mp-684816,K2NaNb(OF2)2,-2.973784030087931
mp-18846,Na4(CoO2)7,-1.454568885420689
mp-978973,Sm2ZnHg,-0.380444883125003
mp-559931,VF3,-3.238528048750001
mp-554280,RbTh2(PO4)3,-3.3586079309126973
mp-23008,PbBrF,-1.9919085849999942
mp-32727,Y3Se4,-2.135785200178572
mp-21297,LiSn4Ru,-0.25633193972222
mp-977574,HoSbPd2,-0.9240500164716001
mp-30979,GaPS4,-0.506497706954365
mp-978093,Ho2S3,-2.368371556687498
mp-557498,NaBi2AuO5,-1.411561127931034
mp-21491,Y3GaCo3,-0.311208768928571
mp-33432,Mg(FeO2)2,-2.10351821
mp-4971,K4Sn3Se8,-1.037990106849999
mp-768961,YB5O9,-3.038968718555556
mp-14871,Li16Ta2N8O,-1.056979827888888
mp-780157,LiFeH12(SO7)2,-1.522254188944444
mp-999133,TaPd,-0.36691171366666
mp-780314,Li3V2P4(HO8)2,-2.5336484317063492
mp-8761,NdCoC2,-0.317720179374999
mp-600051,SiO2,-3.251158346249999
mp-18101,K2Cd3S4,-1.009371341805555
mp-696949,Li3TeHO4,-1.942006451990741
mp-541495,KY(PO3)4,-2.909517903101189
mp-567076,Li2BiAu,-0.47192984541666705
mp-555482,KZrH2OF5,-3.045322368475
mp-771074,Li7CrO6,-2.073353044166666
mp-19900,La(GeRu)2,-0.687281581000002
mp-10477,RbAg3Se2,-0.573175774531248
mp-971701,ZnAs3,0.365552846874999
mp-999446,Nb3Cr,0.40010992999999906
mp-775216,LiVTeO5,-1.986232816249999
mp-20971,SnPt3,-0.401705384999999
mp-12287,La3NbO7,-3.72084618
mp-989497,LaWN3,-1.224590378249999
mp-974066,Nd3Sm,0.024900389375002004
mp-559067,KNa2AuO2,-1.313027489168102
mp-866019,LiNdTl2,-0.335290086875002
mp-31256,U(SbO3)2,-2.576791013333332
mp-571471,NbCoTe2,-0.582735417708335
mp-556195,Na2AlB(As2O7)2,-2.108265367587513
mp-865122,NaNdTl2,-0.25928041138649605
mp-861510,Pr2SnHg,-0.5995394877083331
mp-757375,Ti2Sn3O10,-2.623838555111111
mp-29934,Zr6Ag7F31,-3.143432856022727
mp-770676,Li2CrH8Cl5O4,-1.478242029833332
mp-504935,K2PbO3,-1.559884134083332
mp-7499,Tl2Sn2S5,-0.667618185462966
mp-23930,H4CSN2,-0.3840051184375
mp-772633,SrSc2O4,-3.724464811190476
mp-772659,Li3CrO4,-2.090590604062499
mp-769495,Na5Ni2P2(CO7)2,-2.15378050124729
mp-570755,KTaN2,-1.135553518708334
mp-19479,Na5La(MoO4)4,-2.336211102380637
mp-765504,Li8Fe3Co5O16,-1.811412985208333
mp-3884,Ho2Sn2O7,-3.027425837727271
mp-974617,Hg3Pd,0.06367128062499501
mp-12265,SrCuF4,-3.033043213333332
mp-560121,H5CNO3,-1.156089786625
mp-560515,K4Ru2Cl10O,-1.6959253467058821
mp-867873,LiTm2Al,-0.24169031166666902
mp-20030,U2InCo2,-0.086907175666664
mp-10784,RbErSe2,-1.955691798046876
mp-849671,Li5Co2(SiO5)2,-2.241843343245614
mp-11228,YAl,-0.468428602500001
mp-626864,U(HO2)2,-2.538495444642856
mp-505622,Mn4N,-0.295696929336207
mp-998429,NiAgF3,-1.761972439000003
mp-755783,Li2Ti(BO3)2,-2.882875008030303
mp-770871,Li6Cr2O7,-2.156087853999999
mp-769868,Li3BiH8O7,-1.523802227894736
mp-778111,Li3Bi3P8O29,-2.283946875863786
mp-558628,KLi2BO3,-2.458561459011904
mp-764460,Na5Fe11O16,-1.653154320215517
mp-35005,Na3(WO3)4,-2.145512072849364
mp-559092,ScF3,-4.215910802500001
mp-26224,Li3Cu(PO4)2,-2.34305595637755
mp-17965,KGaTe2,-0.903429579520833
mp-19820,TmPb3,-0.21422539249999803
mp-17812,Sm2SiTeO4,-3.270127240833334
mp-608655,Mn5Si2,-0.279748866360839
mp-772049,Li2Ti2O5,-3.120236325092593
mp-554856,Na2Si2O5,-2.878702410306513
mp-29337,Tl3BS3,-0.632581811666666
mp-28242,Tl6SCl4,-1.086319261590915
mp-989548,Rb2NaTlF6,-2.714412728971265
mp-1607,YbCu5,-0.20909298916666802
mp-756467,TiCu(PO4)2,-2.572219858551586
mp-9223,ScGeRu,-0.7940395022222221
mp-8250,La(NiP)2,-0.9925994168571671
mp-1234,LuAl2,-0.550240265555553
mp-37381,SmOF,-4.145513748333334
mp-1368,Zn8Cu5,-0.10845411461538401
mp-505727,NClO,-0.40282748583333305
mp-757747,LiSn4(PO4)3,-2.274616786863095
mp-19123,Rb2LiVO4,-2.367439304166667
mp-765781,LiVF5,-3.030106555476191
mp-560323,H11C4NO10,-1.242136370144231
mp-707055,Na2GeH12S2O7,-1.309132996833692
mp-12598,PrPt3,-0.8034840654166621
mp-672645,TiSiRh,-0.9466052852777751
mp-560105,K3Ho(SiO3)3,-3.116710351359375
mp-23166,NpBr3,-1.8072203021875
mp-769558,LiMn(CO3)2,-1.9625291211264382
mp-722980,Hg4HN3O10,-0.7721995450694461
mp-975591,NdHf,0.287282426249994
mp-23331,Si3(BiO3)4,-2.464400844999974
mp-899,InRh,-0.49960340000000103
mp-780301,Mn6OF11,-2.782847922643678
mp-322,TlS,-0.45071957416667
mp-667291,ReHg2O5,-1.504287073750005
mp-999201,Sc2MnSi,-0.18256188698275802
mp-768257,Na4Bi2C4SO16,-1.9118815871487862
mp-862372,Sc2RuRh,-0.8194979575000001
mp-23911,MgH20S2(NO7)2,-1.382775038333331
mp-10635,SnSb,0.037633864999996006
mp-27747,PdI2,-0.503004289999998
mp-767740,V(PO3)3,-2.6275601487637372
mp-557420,KBaB5O9,-2.947935847536458
mp-677638,Na27Ca3Al5(P2O7)12,-2.789745149011677
mp-972022,Tm2ZnRh,-0.647074820000002
mp-680197,KAgC2(SN)2,-0.23707040509399402
mp-976181,NaBH4,-0.36874039958333305
mp-23222,Li3Bi,-0.6278293687499991
mp-756281,TmAlO3,-3.775944358500001
mp-11352,PrAl5Ni2,-0.588963146458332
mp-705541,V10O9,-1.788597982894736
mp-631525,KHg2B,0.88730901427083
mp-22205,InN,-0.11770066687499801
mp-770839,LiCr(CO3)2,-2.093175777333333
mp-16627,TmAl7Au3,-0.558152500454543
mp-771050,Li7MgNi7O16,-1.5331933254301071
mp-705562,Mo4P5O24,-2.315242966612555
mp-11234,PrMg2Ag,-0.101571408333332
mp-17832,RbBaPO4,-3.027209593163264
mp-16180,Na6S2O9,-2.087912511663287
mp-556983,LaGaO3,-3.092894673499999
mp-20327,TiP2,-0.852471852539681
mp-336,SmCo2,-0.078742238333334
mp-675741,La10US16,-2.407361903379629
mp-6951,RbCdF3,-2.696909542499998
mp-779056,Li2FeP2O7,-2.570515454246031
mp-560365,Rb2Zr(IO3)6,-1.369478456851853
mp-760165,LiCu2(PO3)5,-2.286647822458591
mp-570168,Rb2ZnBr4,-1.739864938571429
mp-776274,Na5Bi2As(CO4)4,-1.8565669021213052
mp-764885,LiFe8(BO3)8,-2.203390619674796
mp-17794,HoGe2Ir,-0.7879836893750021
mp-755420,SrSm2O4,-3.586737720714285
mp-3143,Na2SO4,-2.201549107894088
mp-22968,NaClO4,-1.004299429396551
mp-30208,YCuP2,-0.9644749189880951
mp-3323,SrZrO3,-3.606749917
mp-8447,K5Ti3F14,-3.426690428011362
mp-625789,Sn3(HO2)2,-1.441613120555554
mp-28477,Sr(ClO3)2,-1.233083114444444
mp-542435,Li3ScN2,-1.049828191874998
mp-15698,Sr5As3,-1.2492793440625
mp-30981,Te(HO)6,-1.307733724166666
mp-762671,Mn2(CO3)3,-1.813319687561577
mp-570419,Zr3Al3C5,-0.7047076563636351
mp-781049,V4OF11,-3.1306119631250002
mp-977387,TbAgHg2,-0.339733660833332
mp-23922,HN,-0.06445735437500001
mp-634657,NaHS,-0.810359105520833
mp-755054,Ti3N2O3,-2.672557274375
mp-10960,Tb2Ti2S2O5,-3.310635647272727
mp-766350,LiSiBiO4,-2.458439296547619
mp-32959,H2O,-1.254777948333333
mp-558941,LiYSiO4,-3.402774547261903
mp-768095,KV13O20,-2.40293827697794
mp-624253,Nb4Co2PdSe12,-0.995227237269736
mp-21233,Ti3InN,-0.930242820333333
mp-770805,Li6Hf2O7,-2.966932076999999
mp-638236,OsC4(ClO2)2,-1.088338962727272
mp-971724,Ti2Si2O5,-2.131637711296297
mp-558073,Sb2SeI2F11,-2.196415890927734
mp-9244,LiBC,-0.37430803916666705
mp-10454,SmTiGe,-0.6200101194444451
mp-764245,Mg7Mn5O12,-2.5690311222772992
mp-772568,Li2Cr4O13,-1.6478530139473682
mp-11233,ZrAl,-0.529345285000001
mp-220,ThNi2,-0.43362542999998904
mp-676311,Nd2Zr2O7,-3.6093695599999993
mp-686458,Rb11Al14Si10(AgO16)3,-2.817917438691861
mp-769152,Sc(ClO4)3,-0.8931887353125001
mp-2067,ThGa2,-0.7449632983333311
mp-2369,SnPd,-0.501837157500002
mp-2082,PIr2,-0.47138817932539706
mp-772055,Li6Ti2O7,-2.805912543777776
mp-28679,NaGaBr4,-1.477205961479884
mp-780860,Li2Co2OF6,-2.247155686969697
mp-943466,Li2CoPHO5,-2.2033065795
mp-571046,Sr5(GeN3)2,-0.79377964
mp-686583,Na5Zr4Si3(PO8)3,-3.132339601303208
mp-567932,LaMg4Cu,-0.11215172638888801
mp-631560,SrMnRe2,1.003735553850575
mp-14213,Sr4GeP4,-1.118488307850528
mp-559446,NaPPdS4,-0.850158281574594
mp-977062,Na3Ca,0.08530955508620601
mp-767039,Sn8P2O13,-1.9863026032298141
mp-974627,K3Tl,0.031539003729165
mp-9027,TiS2,-1.58728328111111
mp-931,ThP,-1.731013593988088
mp-985562,Nd11In9Ni4,-0.475514359270831
mp-20533,SrIn2Pt,-0.659990643333332
mp-11445,Y(TiGa2)2,-0.535474723809522
mp-759450,Sb5O7F,-1.771589975192307
mp-16183,Tl2B2Se7,-0.28725675440341003
mp-767605,Li2VF5,-3.172211583958333
mp-680443,K4Pb9,-0.23147775511893
mp-22909,ZnCl2,-1.291011926666667
mp-654199,Ta8NiSe8,-0.8660201261715701
mp-722979,K2Zn(H2N)4,-0.44055367896666703
mp-11322,ZrSi,-0.9840065624999991
mp-779316,VOF,-2.8016846416666663
mp-771123,ScFeO3,-2.779514111333333
mp-762852,Na2P2H12O11F2,-1.832274974208425
mp-631522,LaOs2Rh,0.758729136249998
mp-30457,LuNiBi,-0.71176266055555
mp-1008600,ZrN2,-0.24985981638888602
mp-705312,LiFePO4,-2.463468104948979
mp-774762,Li2Cu2S3,-0.817834084166666
mp-568823,YbAu3,-0.7966987574999961
mp-20756,LaTiGe,-0.728003070555554
mp-504937,SbSe9Cl7,-0.318941615680146
mp-752535,TaIn3O7,-2.332168056121212
mp-19408,LiV2O5,-2.428818566979167
mp-866807,TiZnH12(OF)6,-1.8974757326282052
mp-975405,RbAuO3,-0.5241850445
mp-780336,Li3Cr3(PO4)4,-2.568094153214286
mp-29617,V3Sb2,-0.201267670000001
mp-17173,Rh2S3,-0.610465406187501
mp-703312,RbPH4O5,-1.92317813064935
mp-570138,Tb2Al4NiGe2,-0.6391857048148141
mp-2604,MgTe2,-0.849417595277775
mp-28549,Li8SiO6,-2.435039187444444
mp-32645,Sm2S3,-2.35113461025
mp-776268,Li5SbS4,-1.214717166791666
mp-626791,VHO2,-2.0745819071875
mp-504962,K2Na3InO4,-1.6470563617804581
mp-24659,UH3,-0.4504776240625
mp-778512,LiFeF4,-2.726610601180555
mp-23146,TlZnSClO4,-1.771604434166667
mp-998732,TlInCl3,-1.314079296000001
mp-5186,ScNiSn,-0.628335793333332
mp-651707,SiO2,-3.26097193952381
mp-21525,RbPb,-0.217142026562501
mp-567415,Nd2B5,-0.5791514071428571
mp-20999,La3InN,-1.058575106749995
mp-769605,Li4VCr3O8,-2.419844815833333
mp-26301,LiBi2(PO4)3,-2.283144509708994
mp-8768,K2CoSe2,-0.9068635288374991
mp-698056,Na2CdH4(SO5)2,-1.793923464092559
mp-776146,Li2V3FeO8,-2.340023019761905
mp-781601,Mn8O13F3,-1.9482576501436801
mp-559498,K9Bi5O13,-1.680508649638889
mp-8993,Sm2S2O,-2.927853433499998
mp-6485,La3SiAgSe7,-1.719268846506076
mp-12233,ZnB4O7,-2.687527499618056
mp-570562,Te3Pt2,-0.432370729000001
mp-569491,NaLa(GaSe2)4,-1.211583213580665
mp-29582,Li2CrCl4,-1.663449338999996
mp-561196,ZnS,-0.9624634303348211
mp-542826,Sc2PbSe4,-1.57430930553571
mp-559643,Rb2Mn(PS3)2,-0.9928652570197031
mp-771304,Li3SiSbCO7,-2.330644334230768
mp-1018125,Ti2Re,-0.352248595277776
mp-555109,TmNbO4,-3.5836585325
mp-558967,K3Ta2S11,-1.19162018118229
mp-974970,Rb3Mn,0.6891168873922411
mp-764620,LiFe4(BO3)4,-2.227581687380953
mp-30727,MgCdAg2,-0.14649241208333202
mp-861944,KNaPrTaO5,-3.099782156958812
mp-30465,YBiPd2,-0.7548858162499991
mp-979073,TmMg2Sc,-0.022633213750000002
mp-11190,VSi2,-0.454544137777776
mp-600050,SiO2,-3.20273789625
mp-763740,LiFeSiO4,-2.501070164761903
mp-758997,LiCuCO3,-1.634902070555556
mp-1013878,LiV3P3O13,-2.671769407363095
mp-771256,Sr3(AsO4)2,-2.696889756538461
mp-554782,Li2Ga2GeS6,-1.074120873787877
mp-1718,ZrFe2,-0.280683423333333
mp-6638,Nd2Fe2Si2C,-0.5813263442857141
mp-541214,KS2O3,-1.7055220741250001
mp-7858,MgUO4,-3.4572803774999983
mp-769229,Ho2Bi2O7,-2.532796064090908
mp-30893,Sr4Bi3,-1.047437582142862
mp-866110,Ho2OsRu,-0.207012022499998
mp-567207,SrIn4,-0.25857772733333
mp-769464,LiLa3MnO7,-3.205585520313697
mp-27761,Li3ThF7,-3.555880871931816
mp-24662,Rb4Mg3H10,-0.32443385544117603
mp-27425,Sr(HO)2,-2.114612977499999
mp-553278,Nd4Se3O4,-3.134966523366476
mp-774258,Ti5Nb(PO4)6,-2.89062126901455
mp-560875,K2Ge4O9,-2.168974577744444
mp-768812,LiBiB2O5,-2.417204812407407
mp-774355,Li3Co2(SiO4)2,-2.398632564333333
mp-31488,Li3NbO4,-2.717096784687499
mp-30852,TiPt8,-0.49484625518518505
mp-767521,Na2InPCO7,-2.310784772005677
mp-976155,HoLuRh2,-0.9560967629166641
mp-557232,KSmPdO3,-2.298623613708333
mp-8743,HoCoSi2,-0.7371078212499971
mp-762279,K2Ti8O17,-3.372458896524693
mp-862601,RhI2,-0.355119468333332
mp-779059,LiV4O5F7,-2.797393425490195
mp-555704,ReO2F3,-2.398888769791666
mp-5416,Na2SeO3,-1.795207838767059
mp-776006,VCo(PO4)2,-2.40960435327381
mp-759874,LiCu(PO3)2,-2.269472393636904
mp-6013,KTa(CuSe2)2,-0.968526246744791
mp-675554,Nd(SmSb)3,-1.230867703928571
mp-604964,PH9C(NO)4,-0.9958096030733081
mp-707095,YHSO5,-2.525894708125
mp-754761,Sr2HfO4,-3.59542025607143
mp-974565,ReP3,0.41184229672618805
mp-3595,ZnSiAs2,-0.1912955775
mp-569532,TiCu2P,-0.5649003063690471
mp-1483,SiRh,-0.800081078749999
mp-27947,Sn(SbTe2)2,-0.42160194595237904
mp-755353,Sr2Ti6N2O11,-3.187122484999999
mp-680690,LaCu3(RuO3)4,-1.5693222917500012
mp-554328,NaSO4,-1.733957048146551
mp-693682,Na25Zr11Sc5Si12(PO8)12,-3.093759046491906
mp-619775,Y7C2I12N,-1.536593241363636
mp-571458,RbGeI3,-1.021950393500002
mp-1017447,HgGeO3,-1.172762238500001
mp-676591,Li11Nb12O36,-2.841015550282486
mp-686042,Zn4B2O7,-2.126864173076923
mp-559366,PBrNF,-1.354472441160713
mp-21656,Ta11(FeSe4)2,-0.726053365924598
mp-12901,Tb6FeSb2,-0.5863420611111101
mp-779314,Li2CrPHO5,-2.327800102755951
mp-862630,ReRu3,-0.087014169375002
mp-21077,LaNiGe2,-0.777464806249999
mp-998979,Ti3In,-0.029837814166666
mp-567371,Sr3Li4(GeN3)2,-0.720522134888888
mp-973136,LiSmO3,-2.290626914666666
mp-578628,Sr2YCu3(PbO4)2,-2.033350729999999
mp-865514,YSnAu2,-0.681623648749997
mp-697797,V(PO3)4,-2.512045959327731
mp-758054,LiAgF4,-1.838479852777788
mp-24075,Ho(HO)3,-2.244273694107142
mp-18744,Sr2ErMoO6,-3.113661218499999