material_id,formula,formation_energy
mp-2131,SrN6,-0.257930001785715
mp-1001011,TaO3,-2.778750954333333
mp-997014,PbAuO2,-0.952841969999998
mp-1019967,LaSi3N5,-1.517069520416667
mp-22630,Sc2PbS4,-1.797819260714283
mp-42255,NaCaNb2O6F,-3.186837066034483
mp-764142,Li5MnV3O8,-2.298915189241041
mp-17455,K7Ta(SO4)6,-2.286447423502192
mp-3930,Sc2MnS4,-1.90159271153325
mp-31454,TaSbRu,-0.46037054744444106
mp-28808,TlReO4,-1.99772220416666
mp-6226,NaSn4(PO4)3,-2.347269966765393
mp-753179,Li2CuPO4,-2.25127221516369
mp-976828,MgPb3,-0.001531236249999
mp-989564,LaOsN3,-0.559173389999999
mp-554370,TiSCl6O,-1.610726378425926
mp-22903,RbI,-1.6958504512500001
mp-10528,Ho2AlSi2,-0.7710894600000011
mp-768978,Ho2(SO4)3,-2.66667841602941
mp-5381,U2PN2,-1.656189823095239
mp-541971,Tm2Ni12P7,-0.769714850595237
mp-4370,Sr(AsPd)2,-0.7698684410000011
mp-637614,Zn3(InS3)2,-0.7914362245211061
mp-15791,LiErS2,-2.105407362083332
mp-23808,KScBP2HO9,-2.874520034130158
mp-542839,TlSbAu,-0.12485336249999501
mp-778832,Li3Mn4(BO3)4,-2.46636943253873
mp-28653,NdTa3O9,-3.507712333807692
mp-867824,LiAg3F8,-1.521860468888888
mp-769187,Sn5P6O25,-2.414696242996032
mp-29395,NaAlI4,-1.151658431479887
mp-999083,Ti2MnSn,-0.144651599899425
mp-1008998,LaS,-2.110797378906248
mp-531882,U7(Pd3S4)8,-0.8590414631184
mp-559949,Zn3(BO3)2,-2.274162635530304
mp-22425,Sc2FeB2Ir5,-0.7214436913333341
mp-561545,Sn4P2O9,-2.204915951619048
mp-761169,Zn2Hg2H2S2O11,-1.553248311578948
mp-15500,Sr4TiP4,-1.299367493035714
mp-7498,Ti5Te4,-0.757783390370368
mp-867189,Pm3Pb,-0.427039198125001
mp-20341,U(MnGe)2,-0.217481785172414
mp-976358,Nd3Al,-0.20575865312499803
mp-8331,Li12Mg3Si4,-0.20983889868421002
mp-998195,RbInCl3,-1.7325552748333322
mp-761184,Na2SnO3,-2.066409340876436
mp-972373,Tl,0.008595309999996
mp-28408,KTcCl3,-1.359139228249999
mp-771645,Sr2CaI6,-1.913018990277778
mp-560535,K4Sr(SiO3)3,-2.904279635823529
mp-771508,Li6Fe3Sb3O16,-1.902778274999999
mp-779166,LiCo3NiO8,-1.2139474079487171
mp-542537,SrIn2Rh,-0.491120102083331
mp-585354,LiCr2P3O10,-2.563863766703869
mp-21232,TmInRh,-0.749182950000002
mp-13326,PrLuSe3,-2.189735595104165
mp-867157,SmCdHg2,-0.389039195000002
mp-31273,La2CuS4,-1.887795424464284
mp-11022,ScAgO2,-2.624149660416652
mp-761024,Na2Cd2O3,-1.418337111108373
mp-1239,Sb3Ir,-0.415732231875004
mp-764005,Li4TiV3O8,-2.611450766041667
mp-770346,Li2VBO4,-2.510391114166666
mp-771750,Sr(IO3)2,-1.539852931944445
mp-228,Te2Rh,-0.43984005000000004
mp-11334,W,0.126865590000001
mp-6455,NaNd(SO4)2,-2.519789294906608
mp-757838,LiSn(PO3)3,-2.470341922304421
mp-510374,GdAs,-1.745141461249996
mp-27623,Na6PbO4,-1.432876992115986
mp-555425,K2Th(CuS2)2,-1.4406986949444431
mp-982373,Pm3Zn,-0.039081147708341
mp-30969,Ho12Co7,-0.17543571815789102
mp-1018073,HoGa,-0.6207172537499981
mp-20290,TbCuPb,-0.396143643888885
mp-8276,Sr(ZnP)2,-0.810472131190476
mp-571440,K2CuBr3,-1.521074013666666
mp-972752,Si3As,0.5417743177083341
mp-19499,KY(MoO4)2,-2.536991310395832
mp-13399,Lu(NiGe)2,-0.6446886313333341
mp-4633,Yb(SiPd)2,-0.9416048209999981
mp-5363,Hg2TeO5,-1.055440153333335
mp-981209,Ti3Ni,-0.078961137499999
mp-768987,Li8BiO6,-1.932928538777778
mp-1146,ThS2,-2.284807075208329
mp-978920,Tb2Be2O5,-3.288369552037036
mp-558116,KMnF4,-2.948373868363506
mp-977580,MgSc2Al,-0.27686316374999903
mp-1058,PdF2,-1.343499204999998
mp-971633,NaFeO2,-1.713807222844828
mp-770349,LiVSiCO7,-2.382536745757575
mp-769650,Zr2Bi2O7,-2.7731542636363633
mp-775012,Li3Co2(PO4)3,-2.278882952696428
mp-19714,GdGeRu,-0.6984051374999971
mp-28769,K(SnSe2)2,-0.8701936988035711
mp-554778,NaY(SiO3)2,-3.312393359471265
mp-6788,La3Ga5SnO14,-2.8321901120652173
mp-999306,PrAu,-0.7879062870833321
mp-974376,PtRh3,-0.024695205
mp-625801,Sr(H8O5)2,-1.400704277407407
mp-972526,SmSnAu2,-0.6988432050000021
mp-28687,U2Cu4As5,-0.358703417954544
mp-830,GaN,-0.6633181693749991
mp-22926,LaBi,-1.2942145200000041
mp-780530,Na2MnPCO7,-2.311302962111043
mp-1009459,NbC,0.39322748020833104
mp-20061,GePt2,-0.37108115888888604
mp-555150,KTa(BO3)2,-3.001375388291666
mp-21366,Yb(GeRu)2,-0.6783253250000031
mp-27474,PaBr4,-1.857753990000003
mp-981458,YbTa,0.37458866883333203
mp-1018144,LaH3,-0.685341640312499
mp-972916,MgCu,-0.055227145000000005
mp-972626,SmGaAu2,-0.634731245624999
mp-767624,Li9V5(SiO8)2,-2.5811801059375
mp-840,SmRh2,-0.690795644999995
mp-754335,Ga3NO3,-1.750173749642856
mp-540179,Li2Cr3(P2O7)2,-2.563970213706003
mp-755492,NaCuP2O7,-2.230210036424092
mp-10334,Pr(CdP)3,-0.604337995085032
mp-774803,TiSb3(PO4)6,-2.485233960035013
mp-567339,PrOs2,-0.106186618055555
mp-29424,Sr4As3,-1.327970944464285
mp-758428,Ti3NbO8,-3.321316444166667
mp-24796,Rb3B12H12Br,-0.49292295651785606
mp-850915,LiFe2O2F3,-2.320117317291666
mp-560023,NiSnF6,-2.637825353124999
mp-1008809,PtN2,0.682314279999999
mp-971996,SrHoO3,-3.054025573999998
mp-14698,Ho2Fe14B,-0.111696269950979
mp-704387,NaFe7(PO4)6,-1.836237842085169
mp-560530,Nb2Cd2O7,-2.458725366363637
mp-973881,PmDy3,0.038303421875003005
mp-12704,TbGaPd,-0.955135205
mp-21338,U(Mo3S4)2,-0.9948261604999971
mp-862744,Pm2ZnIr,-0.5779780925000001
mp-30880,Tb2Zn17,-0.27832455499999903
mp-19311,V2CoO6,-2.113245786111111
mp-600014,SiO2,-3.255455511111112
mp-974672,Rb3Er,0.631119444375
mp-30748,Zr3Ir,-0.5994195562500011
mp-862840,Pr11In9Ni4,-0.459434043680551
mp-1020124,MgSiO3,-3.220845786
mp-867148,LiHfRh2,-0.770482331666666
mp-605839,Li2B2Rh3,-0.5375369397619041
mp-22637,HfNbP,-1.024606825714284
mp-18059,ZrMnSi2,-0.657826697399425
mp-778612,Na3CuO2,-1.338682740272988
mp-556965,NpAgSeO5,-2.023955403157551
mp-974313,NaMg3,0.11761583029102
mp-29807,Hf27P16,-1.167957024595791
mp-571240,KLa5(CCl5)2,-2.324297411097223
mp-14630,Y3Si3O10F,-3.693966157647059
mp-13511,Tm4In(NiGe2)2,-0.7584992433333351
mp-865652,TiMn2Si,-0.5069638372988511
mp-989534,LaMoN3,-1.090724972000001
mp-680374,KAlSiO4,-3.186058913535714
mp-9318,KZrCuSe3,-1.343207952380207
mp-571244,Nd10(B3C4)3,-0.432798428287108
mp-19943,YCuSb2,-0.6912010337500011
mp-27398,TlBr2,-1.00917739402778
mp-18635,Sr6GaN5,-0.7462177053125051
mp-4558,Li4GeO4,-2.297887119259258
mp-764387,MnOF,-2.340826035560345
mp-5821,TaAgS3,-0.9555403932999991
mp-554852,Y2Te5O13,-2.182128275916679
mp-754519,LiNb(TeO4)3,-1.7953732219607832
mp-29008,Li6MgBr8,-1.819567325
mp-697558,SbH12C2N6F5,-1.037698249423076
mp-7238,NdBO3,-3.466906322333334
mp-165,Si,0.013606870000000002
mp-15572,Na3Ca3AlAs4,-0.8518214808307201
mp-754158,KNdO2,-2.950170463687499
mp-1180,MnPt3,-0.35365339948275704
mp-10161,KZnSb,-0.498585959583332
mp-705479,SnH6Cl4O3,-1.331325331071429
mp-756401,TaAsO4,-2.528997859138888
mp-554260,SnSb2As2F18,-2.603215076521739
mp-9459,Y4C5,-0.304072381666668
mp-754086,Li2CuS2,-0.9865968353333331
mp-690919,Na8Al11Si13(AgO16)3,-2.839833347663065
mp-15783,KSmS2,-2.104493069312499
mp-643277,SiH6(NF2)2,-1.720963027115384
mp-752451,Zn(CuO2)2,-1.079197937857143
mp-782637,Na4Cr2P(CO4)4,-2.082850940376301
mp-775866,Zr2N2O,-2.336674785749997
mp-865359,Tm2MgIn,-0.27139650541666904
mp-765358,Li3VOF5,-3.032438854
mp-978951,SmAl,-0.46962974687500003
mp-764034,Na(FeO2)2,-1.544169425197043
mp-768597,SrLaCl5,-2.650177938214278
mp-754125,NdO2,-3.056718285833332
mp-17839,K3Na(SeO4)2,-1.791742020201201
mp-775918,LaTiNO2,-3.039747980666667
mp-770714,LiAlFeO4,-2.088526139047619
mp-554993,Pd3(PbS)2,-0.564319634999996
mp-865738,LiPrHg2,-0.510180438333328
mp-10517,LiScP2O7,-3.083152960692639
mp-703521,Na5P3(H3O4)4,-1.932333497245142
mp-505698,SmH18(IO3)3,-1.350470235080645
mp-30108,P2PbAu2,-0.18049598619047602
mp-972353,U3Pa,0.21689532999999903
mp-24759,ZnH20Se2(NO7)2,-1.141515961017627
mp-774238,Li4Nb(FeO4)3,-1.765417127666666
mp-779888,Li3Mn2Fe(BO3)3,-2.449315819075671
mp-1329,LaTe2,-1.679725037777777
mp-19005,Y6WO12,-3.6557847515789472
mp-631288,LaGeOs,0.9255226500000001
mp-971769,Tm,0.029578992499999002
mp-7386,NaAgF4,-1.873112819999999
mp-18556,Rb2Cd3S4,-1.049852822777775
mp-781710,NbNO,-1.951443478749999
mp-556198,Na2Si3O7,-2.974973410646551
mp-978088,PrLu3,0.0069796345833380005
mp-21897,YbIn4Pt,-0.546045927499998
mp-28673,P4SO6,-1.884116128051947
mp-764086,V4OF11,-3.1304681175
mp-757663,LiSn(PO3)4,-2.492503281216931
mp-568993,Pr(NiAs)2,-0.7908270793333331
mp-15958,Nb3VS6,-1.461424902999999
mp-866209,Pm2SiNi,-0.38015387999999806
mp-772584,Ti5V(PO4)6,-2.90750626262566
mp-560802,Te7(OF5)6,-2.18376645248062
mp-1013796,Li3Ni2(GeO4)3,-1.587711953749999
mp-13532,La2ZnNi2,-0.35904442200000003
mp-697367,NaP(HO2)2,-2.11425857512777
mp-676261,Y3NbO7,-3.483086835454544
mp-778010,LaTa2NO5,-3.194136639407408
mp-695476,NaSr8LaTi10O30,-3.523510380394252
mp-775214,LiVCuO4,-1.908880393333332
mp-569411,La3ScBi5,-1.03645002722222
mp-24724,TbH2,-0.8003036291666681
mp-773831,Sn2N2O,-0.5833343292499991
mp-21111,NdSnPt,-1.045247506388894
mp-1009652,RhC,1.101710296250001
mp-10179,LiMgSbPd,-0.5685833170833321
mp-555255,SbSNF5,-1.938461452890624
mp-978287,Mg3Mo,0.32807379625
mp-571210,YGaI,-1.171153160833332
mp-30857,Zn12Pt7,-0.487488523947365
mp-755488,SrTaNO2,-2.743715458466667
mp-559670,KBaYSi2O7,-3.378215464562499
mp-766230,Rb2NaZn2H5(C2O7)2,-1.795891447951047
mp-758942,NaYH8(CO3)4,-1.72642377678382
mp-760811,Li5Cu3F14,-2.266574487090905
mp-541883,Tb3Ni13B2,-0.42657304268518403
mp-642729,LaH3(CO2)3,-1.7766403849038461
mp-14058,KMg(PO3)3,-2.8024405286556133
mp-621176,YInAu,-0.876083925555563
mp-560748,SbCl3F2,-1.7597123475
mp-777666,Li2V3CrO8,-2.4624727269047613
mp-769122,Li4Sb2H6O3F10,-2.257404444233334
mp-733853,K2HI2ClO6,-1.346478201520833
mp-755591,Dy2TeO6,-2.955219978888887
mp-1013797,Na3Ge3(MoO6)2,-2.081940428456896
mp-715598,V7O13,-2.476962810999999
mp-13852,Ge3N4,-0.192389701428573
mp-693,Pr3Tl,-0.28147766624999804
mp-560333,Ta2Te4Br10O,-1.178742606843137
mp-30645,HoGa4Ni,-0.5317463866666631
mp-775796,Li2Ti3NbO8,-3.058223753690477
mp-695894,NdH12(NO5)3,-1.342380561209677
mp-569967,K2PrCl5,-2.424467699583335
mp-703342,Ti2P2H4O11,-2.522961150050125
mp-542079,K3La(PSe4)2,-1.192551748734694
mp-581517,K2In(PSe4)2,-0.8067398280155671
mp-557950,TiZn(BiO3)2,-2.197995938333334
mp-780869,Tm2WO6,-3.339669136388891
mp-24433,KHSeO3,-1.556214655973959
mp-775916,LiSnPCO7,-2.258965851179653
mp-11852,NdCu2,-0.196883715833332
mp-554057,KPr(SO4)2,-2.5359143349097213
mp-4299,HoInPd,-0.8083280338888851
mp-3701,Sc(Al2Fe)4,-0.42552436346153805
mp-21301,ScInNi2,-0.442703425416665
mp-31091,Lu2Pd2Pb,-0.8419802716666681
mp-17895,K3BeF5,-3.229222521305556
mp-559014,Nd4GeO8,-3.475190156538476
mp-766341,NaSb5O13,-1.874251533756805
mp-1136,Na3As,-0.552478555625
mp-757145,SmH2ClO2,-2.408652389166666
mp-781082,SrCrO3,-2.579012125285714
mp-764959,VF5,-2.833538685
mp-9308,Li4ZrF8,-3.548275181666667
mp-770376,Mn2P4O13,-2.456241291285974
mp-19001,SrMnO3,-2.496220726086208
mp-676424,Sm(GdS2)2,-2.332450028571427
mp-989193,SnBrF,-1.8203426883333331
mp-977438,MgInRh2,-0.527043010416665
mp-31413,TbSnAu,-0.8258439038888901
mp-981381,Tm2TlHg,-0.47860792437500504
mp-9278,U2Si4W3,-0.35477002222222603
mp-773430,NbV2O7,-2.586424955000001
mp-779650,Na5CuO4,-1.357861092189654
mp-977442,Yb2ZnGa,-0.5517561712500011
mp-20944,Sr2PbO4,-2.4660533835714302
mp-1704,Tb2Tl,-0.25802149222222204
mp-767248,LiFeSiO4,-2.488536495238095
mp-559096,Rb2TeH6SO10,-1.656158729208333
mp-984723,DyAlO3,-3.617029635333332
mp-541407,RbCuSnS3,-0.8882653358333321
mp-976039,LuBe13,-0.181110321904761
mp-973685,NdHo3,0.003934851875001
mp-22463,TiInNi2,-0.335994847499999
mp-640051,Pu2Ni2Sn,-0.133268877499992
mp-11628,Tb2Al6Si4Pt,-0.5920746392307681
mp-23050,GdClO,-3.478307646666665
mp-569638,Dy2Co17,-0.07373023728070001
mp-706676,KPH3NO3,-1.6450830413214281
mp-569739,ErAl9(Fe2Si3)2,-0.372983695749999
mp-4474,V4GaS8,-1.22433745980769
mp-581413,Ta2Hg2F11,-2.948731622811112
mp-30058,TlSbO3,-1.711936398666663
mp-755461,Dy3TaO7,-3.836966738848483
mp-558408,Nb4Te9I4O,-0.9044522263888891
mp-984696,Hf(TlTe)4,-0.66997721444445
mp-1017507,TmAu,-1.006067452499998
mp-31770,Fe3O4,-1.6279356214285712
mp-774353,Li3Ti(NiO3)2,-2.154116421527777
mp-21851,MnSiIr,-0.543687593477012
mp-69,Sm,0.0
mp-19028,Na3Fe(PO4)2,-2.482099643815974
mp-531975,Zr3(Bi5Br9)2,-1.101893123548387
mp-779344,Mn12O7F17,-2.561816363199233
mp-8352,SiO2,-3.252280143333333
mp-6633,NaCSN,-0.46063793226562405
mp-7012,KRb2YF6,-3.579900120725
mp-979963,Yb3Ti,0.15635386708333202
mp-13947,Rb2HfF6,-3.752587201666664
mp-764340,Li2FeSiO4,-2.543749990208333
mp-559786,NaAs4BrO6,-1.666794716364943
mp-568887,RbCrCl3,-1.7312868305000002
mp-555678,Na4Ti5O12,-3.107293959151615
mp-755309,Li3NbS4,-1.390220304999999
mp-36066,PNO,-1.476768381547618
mp-27205,TlCl2,-1.225642896111116
mp-1020032,Li8N3O,-0.646006329722222
mp-556468,ZnS,-0.951108138638392
mp-672707,SrZn13,-0.20171576107143002
mp-865357,Zn3Pd,-0.364765307499999
mp-568069,Ti2Bi,-0.173736622777781
mp-24589,K2HBrO,-1.735865829149999
mp-11562,TbRh5,-0.29776225444444504
mp-31297,ScInPt,-0.9033033505555571
mp-673128,LiCuPO4,-2.095770612925169
mp-4266,KAsF6,-2.740819834343749
mp-15671,Re3B,-0.212902521249993
mp-979430,YLuTl2,-0.30031350333334
mp-705588,Fe8O9,-1.499313180588234
mp-11489,Li3Pd,-0.27081692499999904
mp-560785,K2Y4Sn2S11,-1.742267925631578
mp-864654,Zn2NiRh,-0.34063196499999904
mp-560818,Sr5B3O9F,-3.32431697
mp-981549,Y3Th,0.075501670000001
mp-972184,VPtO3,-0.956279399
mp-581449,Re(TeCl6)2,-1.097119505055555
mp-698366,ZnH10C4(N2O3)2,-0.9232913530999991
mp-558460,NaAg(NO2)2,-0.8708610916307471
mp-683941,Nb14S5,-0.6590267005263141
mp-17738,Sr2Cu(SeO3)3,-1.9164332651354172
mp-867613,LiTi4O8,-3.333029768461538
mp-11283,ZrBe5,-0.241093112499999
mp-762347,Sn2N2O,-0.5782910547500001
mp-763268,MnOF,-2.33320738375479
mp-532267,Sr8Ga16S31,-1.428554211681817
mp-1265,MgO,-3.03830917
mp-770741,Mg3(AsO4)2,-2.421341873846153
mp-18808,LuMnO3,-3.11040649758621
mp-977446,NdVGe3,-0.502323800499998
mp-28845,OsO3F2,-1.7116870137500002
mp-843,Th2Fe17,-0.017917188947366002
mp-705675,Sr3Mn4O12,-2.161222606406535
mp-1005986,Zr9CoMo4,-0.125113783214286
mp-763192,V2OF5,-3.033742935416667
mp-779347,V4OF11,-3.130773525625
mp-973965,Nd3Ag,0.005839113125002001
mp-18582,Rb2Ti(Si2O5)3,-3.193642910138891
mp-11677,Sr3(SiAs2)2,-0.9870344161111101
mp-568808,Tb3Se4,-2.056671905624999
mp-979425,YHoAg2,-0.31519344458333
mp-744184,TbFeGe2O7,-2.477635888333332
mp-5456,Sr2CuO3,-2.436278400833332
mp-669370,Ta5AuS,-0.38767955202380505
mp-14650,Nd10Se19,-1.953054456454737
mp-21400,Ga3Pt2,-0.5968488764999991
mp-1766,TmS,-2.17894752140625
mp-21203,TbCoSi,-0.7088008505555561
mp-977550,ZrScOs2,-0.480746043749999
mp-1049,SrAs,-1.268243582083336
mp-558263,YH24C9N6(ClO)3,-0.6510630226086961
mp-1949,TiMn2,-0.272158438898467
mp-559636,KB3O5,-2.8118024836759252
mp-8189,LiReO3,-2.104858231166666
mp-7935,USbTe,-0.7639687872222231
mp-20222,Sr2NbInO6,-2.982250818166667
mp-778703,Li4Mn3F10,-2.961488473654496
mp-18259,Ho2Cu(B2O5)2,-3.022947714509802
mp-756050,TaCuO3,-2.5028656634666673
mp-677490,Li4Nd3SbTeO12,-2.727341062738094
mp-776330,Li4Cu2C4SO16,-1.761879871141975
mp-754203,SmErO3,-3.9000115280000003
mp-780772,Ta2O5,-3.2889011782857143
mp-753316,Li2AgF5,-2.14043424791667
mp-6188,LuNiBC,-0.565181022708333
mp-1067,LiAl,-0.20847878833333303
mp-574040,K2SnBr6,-1.544271811611111
mp-33658,Nb2Tl2O7,-2.302056036969698
mp-697792,LiMn2(PO4)3,-2.359423404062444
mp-19468,YCo(BO2)5,-2.86607626637255
mp-676653,Lu4Hf3O12,-4.089766204298246
mp-7447,Rb2Se3,-1.080183160406249
mp-510412,Si3Ru4,-0.550256021428574
mp-1551,Te2Ir,-0.363477538888894
mp-975652,PrTe2,-1.485817645555556
mp-2008,FeAs2,-0.256783608333336
mp-13688,Ge2Mo,-0.15085383499999902
mp-22258,HfSiMo,-0.7437544383333301
mp-973149,Mn3Al,-0.06714692844827601
mp-706979,PH6N3O,-0.777257932922078
mp-540547,Sm2Co7,-0.0652793725
mp-974000,Lu2Fe17C3,-0.08842025310606
mp-1727,SrSi2,-0.39498135500000103
mp-864753,LiYb2Ga,-0.36653777416666905
mp-758192,LiCuPO4,-2.131405547568026
mp-3978,SrSiO3,-3.441226473
mp-3513,Dy2Al3Si2,-0.583507309999999
mp-976339,LiTm2In,-0.33176008166666504
mp-759915,Li2BiP3O10,-2.523466715349703
mp-567406,SmZn5,-0.302269682499999
mp-762249,V(CO3)2,-1.957898693333334
mp-24196,Tl2CuH12(SO7)2,-1.424111553924731
mp-557304,Sr2SiCl2O3,-3.233585709062501
mp-755226,La2Tb2O7,-3.481307855757575
mp-777685,Ti3Fe2Cu(PO4)6,-2.692280293829365
mp-560051,RbSiBiS4,-1.084620106428571
mp-625856,TeHO3,-1.341118182833333
mp-755336,NdIO,-3.038137594166668
mp-23828,Sr7(H6Br)2,-0.933460226904761
mp-770550,Li2AlCoO4,-2.327874575520833
mp-561379,GaRe(Cl3O)2,-1.5386504412500002
mp-759602,Sb4O5F2,-1.9534420784090911
mp-1451,NbNi3,-0.29261873875
mp-27236,Sb2I2F11,-2.260893332999998
mp-996971,CuPdO2,-0.8181168762499991
mp-13918,Sr(GeAu)2,-0.5135345099999991
mp-762116,LiCu4(PO4)3,-1.927307303863095
mp-867827,DyCdAu2,-0.660763370416662
mp-685995,Ta6Pb4O19,-2.868657693241379
mp-20050,InP3,-0.12389688473214201
mp-12602,PrZn5,-0.302519455277776
mp-768114,Li6Ti9O20,-3.219943830857143
mp-776200,GdAsO4,-2.805558613749999
mp-557844,KMg4(PO4)3,-3.001999511058927
mp-703476,P2H16N4O7,-1.236269926527092
mp-5652,Y2Si2O7,-3.658035678636363
mp-27688,K2TeI6,-1.006003727907404
mp-545369,CuBiTeO,-0.8391133391666661
mp-20495,Na2CO3,-2.038798490668103
mp-7343,Y3Pt,-0.764587470000002
mp-28522,Gd2CBr,-1.08862588625
mp-19386,Sr3V2O8,-3.01776698923077
mp-768153,Li2AsPCO7,-2.20287460281746
mp-973890,HoHfRu2,-0.579773103749998
mp-865569,Ti2MnIr,-0.702065421149425
mp-773007,LiCu5(PO4)2,-1.622624018913689
mp-475,SnP,0.036222141011904005
mp-4527,Li8SnO6,-2.143005662111111
mp-978560,SmZnAg2,-0.218598347083332
mp-23906,LiH6NO6,-1.308234898988095
mp-10172,Na,0.0
mp-18968,Li2FeSiO4,-2.563266433645833
mp-34735,Ho2CdS4,-1.814121167142854
mp-3526,ErInPt,-1.137952625555556
mp-974769,EuNiGe3,-0.5220570760000011
mp-6520,Ba3MgRu2O9,-2.429325057666667
mp-675120,Cu2SiTe3,-0.10950630083333301
mp-560021,AuS3(O3F)3,-1.64663749078125
mp-759750,BiOF,-2.132382275833334
mp-7547,BaSe2,-1.7082743515625
mp-697733,FeP2O7,-2.223711375428571
mp-775135,Cr3Ni(PO4)4,-2.407863380773809
mp-555321,BaNiF4,-3.3835383691666703
mp-568937,Cs3Y2Br9,-2.244489987426106
mp-560870,BaGa2B2O7,-2.763670269861109
mp-2470,DyS,-2.247902868906248
mp-7878,Ca(AgGe)2,-0.32484689
mp-505362,Ca(LuS2)2,-2.40069353529762
mp-20387,EuSn3,-0.45507907874999903
mp-7922,CaPdF6,-2.493979944999999
mp-977581,EuHgAu2,-0.5296377318750041
mp-1019512,AlPO4,-3.035414427857143
mp-540707,Cs2Sn(GeO3)3,-2.16407378662069
mp-733650,CuH6(SeO4)2,-1.193212970422793
mp-569465,Cs2Nb6PbCl18,-1.796092092196679
mp-615173,CuBi(WO4)2,-1.8554361816666671
mp-764,CeCo5,-0.08812799
mp-754599,BaTm2O4,-3.735884278928573
mp-20778,Dy2Be2GeO7,-3.2864306352777772
mp-541037,CsCuO,-1.185304593218391
mp-8770,Cs2CoSe2,-0.866066649783729
mp-23017,CsCu2Br3,-1.063013854942529
mp-10912,BaPr2FeS5,-1.960461586203703
mp-2031,Be2Cu,-0.1403742
mp-743624,Ca5DyTi5Fe(SiO5)6,-3.400432430381943
mp-6059,Cs2KYF6,-3.579909350656033
mp-561113,Ag2BiO3,-0.9160639168055551
mp-3442,CaTiO3,-3.538690571666666
mp-11227,Al12W,-0.072104121538459
mp-775761,AgClO3,-0.41394524133333305
mp-3834,BaZrO3,-3.639168969000001
mp-8760,Dy5P12Ru19,-0.8615047053902091
mp-12266,CaCuF4,-3.043225753333333
mp-1008285,Cr3Fe,0.25941064
mp-756090,BaNa4O3,-1.6812881100646542
mp-1019735,BaNaEu(SiO3)3,-3.213023907425289
mp-558609,Ce3Ta(ClO2)3,-3.4540194409487173
mp-733858,CaH4Se2O7,-1.627888064263392
mp-626708,Co(HO)2,-1.2053718425
mp-24509,CdH4(BrO4)2,-0.856532214166666
mp-18781,CrCdO4,-1.631303849999999
mp-695891,CdH6C(BrN)3,-0.6772015433928571
mp-1013546,Ca3Sb2,-0.672363178
mp-863744,Ca2PdAu,-0.740615747500001
mp-19380,CrHgO4,-1.297561129583334
mp-865169,CaErRh2,-0.643581572499999
mp-554837,Ba3LiIr2O9,-2.186956230222224
mp-986,CeZn,-0.191597919999998
mp-555903,Al(IO3)3,-1.3017925411538451
mp-755060,Cs2O,-1.121915334770116
mp-28296,Ba3GaSb3,-0.986925163214284
mp-865532,BaMgTe2O7,-2.227401601212121
mp-996975,CuAgO2,-0.724300867916666
mp-706585,CaP2(HO2)4,-2.241051351285713
mp-766308,BaCaI4,-1.8754491216666662
mp-1291,ErIn3,-0.485002693333335
mp-23576,CsSbClF3,-2.594534383692528
mp-7781,CaZrS3,-2.032196183999998
mp-758571,Al11TlO17,-3.308075045114943
mp-30438,Be2Cr,-0.22044840916666703
mp-3826,Ce(SiPd)2,-0.880937751999999
mp-1018029,CuPd,-0.12335180499999801
mp-697657,CaP4(HO6)2,-2.572141027951114