material_id,formula,formation_energy
mp-571333,Ca5(SiN3)2,-1.312664792692308
mp-643912,Ca5Ge3H,-0.651250553472221
mp-30185,BaSi23,0.107723061249999
mp-19322,BaMoO3,-2.5167960949999992
mp-757798,Bi12PO20,-1.75161822256494
mp-645694,Ce3LuSe6,-2.1153949998229162
mp-19516,Al2(WO4)3,-2.494557517352938
mp-989575,Cs2AlTlH6,-0.20625497101436802
mp-8382,CePO4,-3.404146650218259
mp-1008928,EuSe,-2.063868537031247
mp-20959,Ce2InGe2,-0.643179368333332
mp-769138,Dy2Sb2O7,-2.822237103636361
mp-755558,BaLa2O4,-3.582359028571431
mp-17815,Ba4Si20Au3,-0.284727966481481
mp-568614,Cs3W2Cl9,-1.691383276354679
mp-5157,Ca(PRu)2,-1.011215721190475
mp-989538,Cs2InBiF6,-2.682546414597701
mp-28351,Dy2GeO5,-3.368152111354172
mp-752826,Al2O3,-3.3327945424
mp-755198,Cs3LaO3,-2.134350336995074
mp-19954,Al8Cr5,-0.04790163607692301
mp-756468,CaY2O4,-3.692362177142857
mp-865572,CeAu3,-0.583065826249996
mp-755651,CsGdO2,-2.911224106163794
mp-21596,Ba3Ge4,-0.568540451071428
mp-645514,Bi12Rh3Br2,-0.31919412676470804
mp-567919,Al45V7,-0.16927828615384702
mp-20194,CeO2,-3.9271761966666663
mp-35269,Ca4Sb2S,-1.3956291817857132
mp-865798,GaCu3,-0.101989799999999
mp-570136,CuI,-0.34307305999999904
mp-14289,Ba3P4,-0.948490984081629
mp-18861,BaNd2Mn2O7,-2.9559738438218393
mp-3972,Ce2SO2,-3.429321157499999
mp-17153,Ba(TbTe2)2,-1.786948157142854
mp-562263,Cs2PbO2,-1.481390851862066
mp-5843,Ce(PO3)3,-2.971486411071429
mp-14069,CsAlO2,-2.846654709913793
mp-7331,Cs2MgFe(CN)6,-0.457082043394397
mp-16280,Ca2Sb2O7,-2.5944479686363593
mp-33975,CuAsSe2,-0.037349940156254
mp-17167,Be3Cd4Si3TeO12,-2.558801447681159
mp-998435,CsScBr3,-1.940501948431034
mp-3444,ErTaO4,-3.7420844770555473
mp-777978,BaYF5,-4.238429838035715
mp-540771,BaZrS3,-2.107697715499998
mp-3107,Ga3PO7,-2.429084078376625
mp-677191,BaLaZnRuO6,-2.4683060555000003
mp-569594,Fe7Mo6,0.0029073823076920004
mp-18343,BaMgP2O7,-3.112968518116882
mp-558144,CuH10(CO4)2,-1.196213451071428
mp-631580,BPd2Br,0.8631545839583331
mp-27809,Ba(GeP)2,-0.5029075863571421
mp-649595,CaMgSiO4,-3.303112629999999
mp-5169,Cu4P2O9,-1.734495814285714
mp-557713,Ba2LaTaO6,-3.506657073733334
mp-571055,Fe11Mo6C5,0.006425573863636001
mp-755568,GaBiO3,-1.9143899185
mp-11272,Be2Nb3,-0.134875928000002
mp-642754,Gd2Mo2O7,-2.879818378636373
mp-8459,CdSO4,-1.824414109583333
mp-626230,Ca(H8O5)2,-1.392751715740741
mp-29169,Cd(AuF4)2,-1.535642893636362
mp-644852,BaCa(CO3)2,-2.6715940245
mp-866126,DyNbRu2,-0.29099031541666703
mp-36028,Co2SnO4,-1.637988171428572
mp-531297,Ga4GeS4,-0.7819962425
mp-1031,GdCd,-0.356769754999994
mp-764883,Fe4O7F,-1.45798143125
mp-8500,AsS2NF6,-1.70635444375
mp-555434,As2O5,-1.557413728928571
mp-23879,Ca(HO)2,-2.164703914499993
mp-704645,CuO,-0.9425302874999991
mp-24799,Cs3B12H12Cl,-0.5178658001416251
mp-773900,BaCa2I6,-1.8741120249999992
mp-17597,Ca(ScS2)2,-2.252192421964285
mp-861734,AcZnAu2,-0.544362240624998
mp-27971,AcCl3,-2.788094297499999
mp-20197,Cr2GaC,-0.129634181874999
mp-16859,Ba6Ga5N,-0.47573277270833303
mp-989542,Ba6Tl2NCl,-0.7124858671666681
mp-14455,Cu4Ag(AsO4)3,-1.270682493458333
mp-5858,CdPtF6,-2.003090078749999
mp-768235,B2TeO5,-2.247413569375
mp-35876,Ca(NdS2)2,-2.380678228035713
mp-505198,CsCu4Se3,-0.45421623839843506
mp-493,Co2B,-0.174664446666665
mp-760795,Al10ZnO16,-3.300505136666666
mp-560342,Ag4GeO4,-0.8931182618518501
mp-17801,Hf2CuGe4,-0.373421887142855
mp-561622,Cs2AgAsS4,-0.879610696059625
mp-607525,Ba11(Cd4Bi7)2,-0.640175800606061
mp-771707,Li2SnBPO7,-2.508353388789681
mp-17283,K3NbSe4,-1.347845455453125
mp-979417,DyYCd2,-0.299809932916665
mp-690567,BaLaMnRuO6,-2.541232057793104
mp-556375,Ba2LaSbO6,-3.024846480000001
mp-989620,LaTaN3,-1.42052451143889
mp-1008349,Co3Ni,-0.007562662499999001
mp-766358,Bi5O7F,-1.688947495384617
mp-570130,AlH3,-0.05904793739583201
mp-780010,Ba2GeO4,-2.85544023660714
mp-1105,BaO2,-2.170192663333334
mp-31030,KHo2F7,-4.215229009974999
mp-865424,CsUO3,-3.216834692931034
mp-559309,K3ZnNCl4O3,-1.760378148479166
mp-558159,BaTi2O5,-3.532110458333396
mp-706303,KCa2P4H9O17,-2.283900358774892
mp-31121,HoScO3,-3.965070402999999
mp-540312,Li2V(PO4)2,-2.642537165457875
mp-1018651,Ba2H3I,-1.013956369791667
mp-985825,Al3Cu,-0.103018489999999
mp-997022,AgAsO2,-1.157919233541666
mp-31604,Li2CoP2O7,-2.492143507371032
mp-775484,Ba6Li2Ti16O39,-3.465604477698412
mp-15843,Ge9Pd25,-0.45306283102941003
mp-13963,HfSiTe,-0.7901056366666661
mp-8755,KNaTe,-1.213264275416667
mp-557628,AsS(IF3)2,-1.790851937750002
mp-760817,Li2AgF4,-2.295518080952384
mp-20257,AsPd3Pb2,-0.351475592916666
mp-640024,HfInNi2,-0.39295919166666504
mp-4818,Rb2Sb4S7,-0.812084195576921
mp-491,La3Se4,-2.309851330892854
mp-999503,MoN,-0.298578174999999
mp-977542,LiTbTl2,-0.31877734416666903
mp-28433,RbClO4,-1.09439221125
mp-636614,YPb2,-0.504024659999998
mp-767431,Na3SrPCO7,-2.577993957598521
mp-30493,ZnCdPt2,-0.43475369499999805
mp-766142,LiFe5O5F,-1.694797344444444
mp-676284,YAgSe2,-1.38369469453125
mp-972557,SmAg3,-0.20321334124999801
mp-4287,Sr2SnO4,-2.785275042142856
mp-19420,Sr2MgWO6,-2.9851568834999993
mp-32642,Lu2S3,-2.290768049854165
mp-983425,Li2PmGe,-0.376140887291667
mp-777778,Li2VO2F,-2.651280500694444
mp-770513,Li8Mn2O7,-2.001510569119337
mp-569013,Ho(SiAu)2,-0.578963702999999
mp-25248,Li4(CuO2)3,-1.530516197564102
mp-20860,Mn3SnC,0.037648601984258005
mp-2758,SrSe,-2.35255396453125
mp-780162,Li4Ti3(CoO4)3,-2.426720491287878
mp-6940,U2IrC2,-0.340684823999998
mp-12532,KAg2PS4,-0.7215486906532721
mp-631299,NbCrCo,0.83372563
mp-675492,SrLa5F17,-4.44630321130435
mp-684024,Li2SiN2,-1.106952388833335
mp-775194,Li2Fe3WO8,-1.9672440933333322
mp-29070,La5C2Br9,-2.0003162078125
mp-756350,TiNbO4,-3.169562311666666
mp-1116,Sr2Mg17,-0.03953583236842
mp-11202,Y6FeSb2,-0.583511671111111
mp-2914,LaSi3Ir,-0.861072935
mp-677474,Na4Al3Ge3NO15,-2.222211397904509
mp-778052,Sm2TeO6,-2.9487413758333343
mp-19070,Sr3Mn2O7,-2.596824480905171
mp-27826,K2MoCl6,-1.596602248055556
mp-9845,RbCaAs,-0.8403775799999991
mp-15827,Ho2Ge2Os,-0.690363926999994
mp-557833,Ti(Ag4S3)2,-0.47477240627777606
mp-11765,Ti5Se4,-1.269583419560184
mp-29381,Na2Te2As,-0.6841950718333321
mp-18595,LuCu(BO2)5,-2.81441601367647
mp-21484,PuGe3,-0.39338898718749904
mp-557605,Hg2Pb(SI)2,-0.589620708571429
mp-15790,LiHoS2,-2.09820196833333
mp-13580,LuGePt,-1.119249618055557
mp-849413,Li5Mn6(BO3)6,-2.469924380835797
mp-600026,SiO2,-3.217925816388888
mp-568681,Mg8BPt4,-0.6452845668589741
mp-973938,LuCoGe2,-0.5514128141666681
mp-10131,Zn3(Ni10B3)2,-0.28208503499999804
mp-977582,ZrZnRh2,-0.8502513425000011
mp-774426,Nb3Cr(PO4)6,-2.828710963466386
mp-557863,K2Ag4Pt3(NO2)12,-0.762454828359259
mp-23492,Si(Bi3O5)4,-1.792994503333337
mp-505679,HfV2O7,-2.8863555272499983
mp-570875,Ga2Os,-0.205449131666663
mp-757150,Li5BiS4,-1.216155913666666
mp-2544,Zr2Be17,-0.23725090289473502
mp-28168,Th6CBr14,-1.9174193680952332
mp-765046,Li4V2OF7,-3.010449754880952
mp-2408,Ga3Pd5,-0.632974879999999
mp-999389,NbFe3,-0.048552039999998006
mp-753821,Pr3GaO6,-3.415209581750001
mp-5670,LiTi2O4,-3.246210392142857
mp-10419,Na4ReN3,-0.40465959225215503
mp-775331,LiVO2,-2.467004507083333
mp-864755,LiAcTe2,-1.4200840447916652
mp-5170,NdCoSi2,-0.718578306874999
mp-5222,ReTeS,-0.6838039330555581
mp-978824,Sm2RuAu,-0.48480495999999906
mp-31281,SrSnAu,-0.740117963333333
mp-567351,Tb4MgIr,-0.41724964944444404
mp-862605,Rb4Zr6CCl18,-2.236696280517241
mp-12712,Zr3Pd4,-0.7294412378571451
mp-9851,HoP5,-0.630045229146825
mp-9913,Fe5B2P,-0.387266767872023
mp-1018128,ScAg2,-0.290682248333332
mp-7756,SrLiSb,-1.018784152777778
mp-626046,H7NO6,-1.091796124553571
mp-17913,Tb2SiSeO4,-3.4091315291471362
mp-21666,Nb3(Fe10B3)2,-0.26042776189655104
mp-557936,Zn4Cu5(TeO6)3,-1.354497734833334
mp-30388,HoInAu2,-0.696934070416661
mp-574279,TlIn5Se7,-0.65936406821313
mp-975787,PrW3,0.765199173749998
mp-604295,HgH16(Br3N2)2,-0.6868043969444441
mp-12077,Y(FeB)2,-0.42854309966666604
mp-766828,Li4Ti15O32,-3.278476845555555
mp-989406,LaTcN3,-0.798052574750002
mp-37233,Nd2CdS4,-1.837126271428569
mp-775020,Mn2OF3,-2.597114616810345
mp-18903,Sr2CdWO6,-2.536973467
mp-541581,KSO3,-2.073822209616666
mp-770905,LiMnAsCO7,-1.83393685988767
mp-18998,Sr4Mn3O10,-2.5845362531642992
mp-679971,TiSi4(NCl7)2,-1.3808066704960291
mp-20914,NdIn2Ir,-0.670277773125
mp-850414,LiB3P(HO3)3,-2.402489649880952
mp-1019809,KBe2B3O7,-2.891704019403846
mp-7927,Nb4N5,-1.120204727083331
mp-628599,YbBi2IO4,-2.138261678437498
mp-761969,Li4Fe3Ni3(SbO8)2,-1.733202132619048
mp-20643,Y2Ru2O7,-2.561902583636363
mp-756392,LiCuSi2O5,-2.607716072037037
mp-972507,Yb2Co2O5,-2.390774978194448
mp-24426,HgH2SeO5,-1.080913883871528
mp-510463,KCeH2S2O9,-2.268196608816666
mp-770554,Mn3Co3(SnO8)2,-1.544738684324713
mp-27537,Na2TeO4,-1.809936480453611
mp-765677,Li6V5SbO12,-2.325557530416667
mp-13447,Zn13Rh,-0.134944325357143
mp-770218,ZnIn2O4,-1.867211013333333
mp-850834,Tb5Ti5O17,-3.702677214999999
mp-721017,Na2Te(H5O4)2,-1.430579380329775
mp-6712,NaLuGeO4,-2.903238962220854
mp-3651,Nd(SiRh)2,-1.059744741499996
mp-6623,Rb2Cd2(SO4)3,-2.001402373552631
mp-554623,Sm2Ta2Cl2O7,-3.443359100743589
mp-768072,NaMnPCO7,-2.173404943313927
mp-977,LuIn3,-0.43042182166666904
mp-680388,ZnCuTeCl2O3,-1.372633904270833
mp-771216,Sr3(AsO4)2,-2.635575445576923
mp-556665,TlBiP2S7,-0.641402386374458
mp-770528,Li5MnO4,-2.002432969584769
mp-1019785,K2Si(S2O7)3,-1.976010062066667
mp-16713,Pr2B5,-0.5469307311904731
mp-557268,KLi4AlO4,-2.410383530683333
mp-557320,K4Re2Cl10O,-1.749195616999999
mp-974616,Pt3Rh,-0.034819157499995
mp-7432,Sr(CdSb)2,-0.5677388000000001
mp-24440,Na3SbH18S4O9,-1.209506117689655
mp-31447,TbAgPb,-0.412660744444443
mp-8696,K3Na(SeO4)2,-1.7883623598440561
mp-13868,PdF4,-1.320648856999999
mp-27566,K3(PtO2)2,-1.371516848527778
mp-18853,TlV2AgO6,-1.896817975
mp-863730,KTl,-0.101009099875003
mp-973444,K3V,0.882870680249999
mp-973759,Lu2MgCd,-0.14958102958333303
mp-558403,P2Pb(XeF6)3,-2.122139237678571
mp-973773,Nd2Cd2O5,-2.14227217111111
mp-558490,Tb3Se2ClO8,-2.815241285870535
mp-643697,Rb3MnH5,-0.16384171407566903
mp-7500,Na4SiO4,-2.381574120057471
mp-46,Ti,0.015169603333333
mp-15845,SrLi4N2,-0.5568225598809531
mp-17980,K2MoS4,-1.108780208749999
mp-766885,Sb3PO7,-1.9895713252705622
mp-29155,TlB3O5,-2.5845549325925923
mp-780360,Na8Gd2O7,-2.116756149913792
mp-767518,Na2ScPCO7,-2.7383891927001223
mp-22664,HoRh3C,-0.513091249999999
mp-720118,Sr3Nd10Al12Si18(N2O)18,-2.105764495103092
mp-715457,V4O7,-2.312641740454546
mp-1909,LaMg2,-0.10437762833333201
mp-22613,Nb3FeS6,-1.305383390999996
mp-558910,Li2U3(PO5)4,-3.084229603628899
mp-861973,PaCdAu2,-0.41065134750000004
mp-863709,Ir3Rh,-0.025206192500000002
mp-551826,NbTlBr4O,-1.6370067669047632
mp-8159,TlCu4S3,-0.39683280947916605
mp-974421,IrRu,-0.037187652500001
mp-20048,U(Ni2P)2,-0.6779380948979571
mp-17065,Ho2SiO5,-3.798526289375006
mp-1014013,P,0.053987197023809004
mp-15551,Sr2LiSi3,-0.404995565138891
mp-20049,LiFeP,-0.6519720843253971
mp-567945,SnTePd,-0.287586470416665
mp-774561,Zr2(PO4)3,-3.07459720934874
mp-961681,ZrGePt,-0.472756888333331
mp-973572,La2TlHg,-0.45595820645834
mp-29634,V4P2C,-0.7722759172789101
mp-698648,K3(MoO3)10,-1.841572684924417
mp-763558,LiV2(CO3)4,-2.026954942807018
mp-556307,Na2Si2O5,-2.8965906769731813
mp-571419,Zr2Al4C5,-0.510639604488633
mp-974949,Rb3Ir,0.7905514543750001
mp-7735,Pr5(CoB3)2,-0.38242818871794904
mp-571232,YbBr2,-1.6727329708333372
mp-780260,TiGeO3,-2.683055854666666
mp-510426,Ta4Te16Pd3,-0.6301427463478251
mp-541860,TiAs2H4O9,-1.846768380833333
mp-4533,Na2SiO3,-2.692845917126435
mp-558121,K4Ba(VS4)2,-1.531453596933332
mp-7264,Nd(PO3)3,-2.987418768956045
mp-5116,K6Ge2O7,-2.025533711233332
mp-129,Mo,0.0
mp-766094,NbO2F,-3.100732008124999
mp-26271,Li2Sn(PO3)4,-2.560618886986215
mp-8116,K(MoS)3,-0.9324394060267871
mp-618807,KSb(MoO4)2,-2.004925024770833
mp-556575,Sr2YGaCu2O7,-2.485577612499999
mp-754550,Tb3TaO7,-3.831561547030302
mp-4535,PrGaO3,-3.034011709833333
mp-540672,Ti7Br16,-1.530996540144928
mp-977128,NaRu3,0.81702437336207
mp-20254,Na2Te2O7,-1.681452471462903
mp-631293,HgP2Se,0.735410851692712
mp-17103,Sr3Ta6(Si2O13)2,-3.4146119242051283
mp-13861,HfB4Ir3,-0.532487689583332
mp-865500,Na2Hf2O5,-3.165094377528736
mp-972185,Tl3Hg,0.018193175624993
mp-39,Tl,0.009790289999997
mp-998604,RbPbCl3,-1.866758507500001
mp-757101,Li2Cu(Si2O5)2,-2.779587650686274
mp-980392,TmScHg2,-0.5198028825000021
mp-867281,Tc3Pt,-0.310300714999996
mp-673144,LiSnP2O7,-2.37541936819264
mp-4353,TbAl4Ni,-0.555881647777775
mp-757142,LiNb(PO3)4,-2.55697695885582
mp-764554,Li5Fe8(BO3)8,-2.28576667711111
mp-976952,NaPuO3,-2.82845516902586
mp-560847,Nb2TlPS10,-0.9525312509268711
mp-765227,Li6Sn5(P2O7)4,-2.45773508855623
mp-707068,KH8O4F,-1.5064385274821421
mp-22561,Pr2ReC2,-0.22305405416666402
mp-761078,Na9Ti20O40,-3.151029609406962
mp-767262,Li12Mn3FeP4(CO7)4,-2.393650846968548
mp-18209,Pr2(ZnGe2)3,-0.38110506484848405
mp-23215,ThCl4,-2.409598440999997
mp-34486,Pr5AgS8,-2.099722959999998
mp-581471,Nd(CoB)4,-0.39211601305555605
mp-10560,Sm3AuO6,-3.077528223500002
mp-770866,LiMn5O8,-2.02116634949918
mp-771830,Sr2YI7,-1.796236211499999
mp-971632,GaP,-0.33938345711309703
mp-772578,Li2Mn3SnO8,-2.101952575747126
mp-772820,SrLu2O4,-3.834088167261906
mp-977443,ZrGeRu2,-0.671283388750001
mp-645166,Tb(GaFe)6,-0.300562223974358
mp-27994,HgBrO3,-0.395069115
mp-644285,KAlH2CO5,-2.196757940475
mp-554973,TlCuF3,-1.861619619999999
mp-676725,Lu3NbO7,-3.60814389590909
mp-865047,Mg2AlB2Ir5,-0.6077664178333331
mp-760599,TiSn(PO4)2,-2.7018582481349203
mp-23397,MoPCl9,-0.861060864134198
mp-981366,Zn3N,0.742932351562499
mp-865160,MgGeIr2,-0.33299379500000104
mp-622640,V3O7,-2.338437482666667
mp-16594,K3TbSi2O7,-3.074247541929487
mp-36592,Nd5AgSe8,-1.9635918832142831
mp-780522,LiVP3H8O13,-1.9763398960485352
mp-558039,Sr2HoSbO6,-3.118504510499999
mp-765567,Li4P5HO15,-2.588314757911904
mp-849223,LiNb(TeO4)3,-1.800353751960783
mp-30026,Sr3Te4O11,-2.255353783981483
mp-637771,ZrInNi4,-0.36619626944444506
mp-772666,Li2Cr2O7,-1.8181186942424241
mp-6015,LiSiNO,-2.120794075208334
mp-1092,HoHg,-0.5731057312500021
mp-23011,RbClO3,-1.1442688205
mp-568077,TaFe2,-0.19293761577777901
mp-510422,SiNi2P,-0.45453030623647805
mp-2987,Li2MgTl,-0.17824431875000002
mp-771253,Sm2Zr2O7,-3.763203160227272
mp-561126,Nd3Si2S8I,-1.758389743035714
mp-697744,LiMnP2O7,-2.518464318913643
mp-780724,LiSbP2O7,-2.4440749918290052
mp-670,NbCo2,-0.127613473333333
mp-850993,LiMn4(PO4)3,-2.515106938199302
mp-980190,LiYb3,0.189438052083328
mp-773190,Na2VBAsO7,-2.236237924118774
mp-672958,LiSb(PO3)4,-2.499882664689153
mp-778800,LiMnF3,-2.970430370252873
mp-541047,ZrAlPd2,-0.803114597499998
mp-849541,Li2V2F7,-3.065344624924243
mp-560585,P3IrO9,-2.247317921456041
mp-2749,TiBe2,-0.19378267611111102
mp-684525,Cu2Se,-0.033469192187501
mp-696867,V4NiS8,-1.1220229453846151
mp-28413,Na2(GaSb)3,-0.33394213628232705
mp-20803,USbAs,-0.7482576608333361
mp-12574,Dy2C,-0.44103585666666806
mp-556014,Li3Ga(BO3)2,-2.608244741319444
mp-864879,NbC2NCl8,-0.647729563220488
mp-505814,CsBa2Nb3O10,-3.130751393103448
mp-769596,Li3V3CrO8,-2.442379760999999
mp-30218,Ti2P,-1.128354833769839
mp-8654,PrSiRu,-0.764182918888887
mp-504498,K2CdPb,-0.157758239874998
mp-754943,ErBiO3,-2.818545103999999
mp-1008702,Ti2In,0.5385968455555551
mp-556908,Nd5As4(ClO4)3,-2.865603284270832
mp-28365,Na3AuO2,-1.316017036939655
mp-983410,Ho2CuPd,-0.602262679999999
mp-864925,NdMgZn2,-0.33861244312499905
mp-735535,NiPH6NO5,-1.4585287855102052
mp-34857,KNO2,-1.287023125562499
mp-28108,Na4SnTe4,-0.8616289799999991
mp-768889,YHoO3,-3.901504207333332
mp-776669,Na7Co3O8,-1.508714258036398
mp-558381,PtCI2O,-0.6917870355000001
mp-780854,Fe4O7F,-1.4582056370833332
mp-570135,SnHg7(P2Br3)2,-0.509019588531748
mp-755586,NaLaO2,-3.035822470344827
mp-558071,RbS,-1.15759997333333
mp-972337,Ti2IrW,-0.5145119691666691
mp-770806,Sm2TiO5,-3.823237357604167
mp-1561,TbSe,-1.9973161245052091
mp-763292,Ti3Mn3(SbO8)2,-2.422283950158046
mp-756422,Li4CuSi2O7,-2.567689882023809
mp-554267,SiO2,-3.251188911666666
mp-29524,K3BiO3,-1.6753426613214302
mp-669508,TaP2NCl12,-1.40031957728869
mp-1584,YbIr2,-0.9439648233333261
mp-2033,Ni3N,0.014724856562498001
mp-625256,H5IO6,-0.9869337719791661
mp-11019,GaCuO2,-1.6750175293749892
mp-27197,Na4As2O7,-2.007976421578251
mp-755000,LiTiO2,-2.924878704166667
mp-573755,CsTeAu,-0.7088035721072761
mp-38407,Li5SiAs3,-0.516340040462963
mp-5929,Na5SiP3,-0.540155518492063
mp-15543,NaLiZr(Si2O5)3,-3.240721280196361
mp-9675,Cs3BP2,-0.554626373908727
mp-10547,RbAuO,-1.067955709166669
mp-769871,Li2CrFe3O8,-1.795500872261905
mp-769359,Y2Bi2O7,-2.5170303095454543
mp-556786,LiCdPO4,-2.437196035425169
mp-504815,Re5(NiAs6)2,-0.13885655195488902
mp-16370,Th2Ge,-0.6408838399999961
mp-675134,Sr5Ti5O13,-3.330731274855073
mp-752713,HoBO3,-3.557053922833332
mp-559692,Ta2Cd(P2O7)3,-2.78390624066746
mp-977392,Ho2MgIn,-0.288879742916662
mp-4984,SiB2Mo5,-0.41412277437499806
mp-5309,KAuF4,-2.069855809541666
mp-972912,La3Er,0.034690657916666
mp-17524,GeAs2,-0.06242388249999901
mp-771139,Cs4HfO4,-2.333387039291186
mp-961712,TaTlPt,-0.035423306888890005
mp-29850,Na3TiCl6,-1.91712361566666
mp-639719,Cu3Mo2O9,-1.471692210535715
mp-9382,SrZrN2,-1.5829082481250012
mp-2488,SiOs,-0.392482408749998
mp-2367,LaC2,-0.330961655
mp-19424,TiCoO3,-2.622026583166667
mp-3622,Na2PdF4,-2.331523762142857
mp-569580,NaLa4I7N2,-1.832569860277094
mp-557256,RbP3PbO9,-2.5575943023341843
mp-553958,Zn3(PO4)2,-2.347010148791208
mp-3432,ScNiSb,-0.9635939116666631
mp-28439,KSc2F7,-4.056580013224997
mp-11539,SmAl3Pd2,-0.9046129499999981
mp-1017446,HfCdO3,-2.670019158999999
mp-28683,Ta(ICl)2,-1.3011900074666651
mp-12537,Ti2GaC,-0.7580389497916671
mp-1019888,KNa2BN2,-0.6185259581958811
mp-10456,HfSiPt,-1.179526186666663
mp-756286,La3Ce4O12,-3.86383846868421
mp-867285,LiTb2Ir,-0.555401524166667
mp-759435,LiCu(PO3)3,-2.393930962125851
mp-558571,Sc2Te5O13,-2.128091309416666
mp-763698,Li4Nb3V3(CoO8)2,-2.46016004547619
mp-17853,YGaO3,-3.125843044833334
mp-557952,RbInP2O7,-2.611717892586579
mp-769478,Li4Ti4V4CoO18,-2.747212031666667
mp-667323,Mg(GaS2)2,-1.181832509047618
mp-558057,LiCdCoF6,-2.480673156481481
mp-7891,Mg3As2,-0.7560376660000001
mp-770681,LiCr10O15,-2.234091955320511
mp-555108,PH9C(NO)4,-0.9958897724154131
mp-1787,NdMg3,-0.10229046812499801
mp-1007664,InPd3,-0.48664728499999604
mp-10105,UTeAs,-0.991342490833337
mp-676076,Cu11Sb4S13,-0.23292578728794702
mp-542426,CuHgSI,-0.423170259375001
mp-2165,SmZn,-0.32971875249999805
mp-556676,Na3Al2(AsO4)3,-2.304288524956897
mp-571203,Sr(CoAs)2,-0.618833319
mp-976410,Nd3Cr,0.36672020937499605
mp-626550,Ti3H2O7,-2.909775419791665
mp-631338,LiZrSc,1.131952621777777
mp-978303,Mg3Re,0.43567475312499904
mp-19270,TiFeO3,-2.697939042666667
mp-1005727,TmNp3,0.6709568667708361
mp-22457,K3Na(SO4)2,-2.25555073343781
mp-570324,Rb2TeBr6,-1.414484450185184
mp-1056,Tb2O3,-3.9821810734166663
mp-6433,KNd(PO3)4,-2.9144241204622743
mp-557249,K2UCu3S5,-1.180327861090908
mp-568880,YInPd2,-0.866197379999999
mp-769380,Li2TiSn3(PO4)6,-2.644312324801586
mp-849695,Li2FeO3,-1.820166784444444
mp-21164,SrGePt,-0.9961831241666631
mp-755752,Rb2Be2O3,-2.3777233978571433
mp-636461,Ga2Ge4Pb3O14,-2.002855548913042
mp-572596,TlIn3S5,-0.8063226478703711
mp-989388,Rb2SCl6F,-0.93863103875
mp-555814,Sr2Cu2Te(BrO3)2,-1.893765146666666
mp-504667,RbIn(WO4)2,-2.145657781180554
mp-570845,Zn(GaNi)3,-0.37327873357142805
mp-762222,Li2CuF4,-2.5745543536904743
mp-31909,Ta2Mn3O8,-2.747085156804597
mp-631451,Ta2CdBi,0.806676277583335
mp-22154,In2Au,-0.318354423333332
mp-29525,Rb3BiO3,-1.62119586142857
mp-978852,SrGaSnH,-0.48947939093749904
mp-763763,Li4Cr3Fe2Co3O16,-1.796290462261904
mp-9069,K2NaAlAs2,-0.554715968479885
mp-771816,Gd3NbO7,-3.685003981136364
mp-28569,NaInBr4,-1.430797447174329
mp-19227,YMnO3,-3.007963200252874
mp-756093,Na12NbO7,-1.552418892077585
mp-753671,PNO,-1.479780393214285
mp-762413,Li3CrSiO5,-2.596131015
mp-764233,Na8CoO6,-1.495229025735632
mp-19931,Na2MgAlF7,-3.573581868432602
mp-628647,TlHg3As2Cl3,-0.6809305142592621
mp-754696,PrTiO3,-3.481524188
mp-505822,TiSiRu,-0.856365374166664
mp-27595,K2ReF8,-2.78151324836363
mp-555576,KNaS2O7,-2.091154526239028