material_id,formula,formation_energy
mp-13149,BaAlSi,-0.364180733333332
mp-558428,Ba9Sc2(SiO4)6,-3.444504484390243
mp-15003,Ca3HfSi2O9,-3.582640128499995
mp-573710,CsTbZnSe3,-1.647430718058847
mp-6080,BaNd2CoS5,-1.93321131361111
mp-21399,CeMnGe,-0.42968993597701005
mp-558011,Cd2H2SO6,-1.629915077272726
mp-30958,Ca(BS2)2,-1.167786682023808
mp-997040,AuBrO2,-0.117032451249999
mp-680055,CdI2,-0.824998857272726
mp-755526,Ba2Ti6N2O11,-3.194544857857142
mp-30371,Cd5Au3,-0.20018613062499901
mp-580541,Cs2NaSmCl6,-2.4845680815689652
mp-694945,Ba3La7Mn2(Co4O15)2,-2.459043673817242
mp-984784,Ba2ZnCd,-0.23247237749999902
mp-16915,BaTiOF4,-3.928887087261905
mp-2310,CdO2,-0.8412000416666661
mp-572951,CsNaSi2O5,-2.905090861920498
mp-1019601,CeZr7O16,-3.78275696125
mp-560260,CsLa(SO4)2,-2.581556988929597
mp-771193,Ba3Y2O6,-3.253627883636363
mp-19803,CdIn2O4,-1.842010734047615
mp-24130,CaP2(HO)4,-1.8148766453896101
mp-1008528,B2AsP,-0.23964713574404603
mp-996948,CaCr2O4,-2.3668855369642863
mp-16461,Gd2Si2O7,-3.599564860681817
mp-388,ErPb3,-0.23868868749999403
mp-1224,HgO,-0.635057482500004
mp-560978,Ba4Al2O7,-3.1865793357692302
mp-753552,Cu4PtO5,-0.9055933625000001
mp-560370,Ge(PbS2)2,-0.7537919746428551
mp-9785,BaHo2PdO5,-3.066203472777775
mp-19071,Co2SiO4,-2.065518774285714
mp-774530,Ba4Ti11O26,-3.500919083333333
mp-753823,CeTh3O8,-4.252385752499997
mp-759356,AlH3NCl3,-1.3333661928125
mp-541848,B,0.7090749072222221
mp-30367,Ca5Au2,-0.572746819285717
mp-560899,CaB3H5O8,-2.270877465514705
mp-4767,Ce(SiOs)2,-0.717167661999997
mp-542728,Co21(B3Mo)2,-0.13176031189655302
mp-33318,Ca11Al14O32,-3.447732863508824
mp-1725,CaZn2,-0.30290577833333104
mp-13911,Ca(ZnGe)2,-0.324720504000001
mp-776748,Cr2P4H3O16,-2.138360564892857
mp-567575,Cs2Na(C2N3)3,-0.256069449482759
mp-30512,CeTlPd,-0.6904437600000001
mp-676459,Ca2LaF7,-4.253408028000001
mp-850988,Co3(OF2)2,-1.824223222777778
mp-755451,BaLa2Br8,-2.397276538636363
mp-581609,BiP(PbO2)4,-1.902705648545918
mp-557938,HfVF6,-3.7037399425
mp-540050,Fe3P3O11,-2.327649195084032
mp-542694,HI3O8,-0.8141351182291671
mp-4459,Ce2Fe14B,-0.070621391568624
mp-643829,AlSiHO4,-2.82826644017857
mp-22982,CuBiS2,-0.347393063281248
mp-10952,Cu2HgGeS4,-0.5334485421875
mp-768311,Cs3NO4,-1.29291558362069
mp-674493,In2NiS4,-0.6990659054761891
mp-636368,Ga3Fe,-0.23824714374999903
mp-616166,Ba2Ho(CuO2)3,-2.243011351249999
mp-850222,FeO2,-1.277397556666667
mp-3958,Er(SiOs)2,-0.718239238000001
mp-5506,Ba(AlSi)2,-0.269387471999998
mp-27657,Ca2B6O11,-3.066904042236782
mp-864995,DyAl3,-0.48056081874999806
mp-31033,HfF4,-4.101514556333337
mp-38771,Gd2MgS4,-2.10099587142857
mp-510596,EuCuSeO,-1.9024321780859381
mp-866036,EuRuO3,-2.160326880000001
mp-973283,HoLuAg2,-0.33211146624999804
mp-866221,HfSnRh2,-0.771035163749997
mp-768786,BaYI5,-1.758794641071428
mp-683991,Cu4Bi4S9,-0.31981588119485305
mp-31064,B6H10N,-0.27971710919117604
mp-23569,AsSe6IF6,-1.31260652796875
mp-9535,Al6Cd4TeO12,-2.700609853768116
mp-3638,Cu2P2O7,-2.028611891298699
mp-8932,Cs2SiP2,-0.5966127281904761
mp-1884,Ca5Ge3,-0.7223121262500011
mp-555508,Ca11Si4SO18,-3.368165604338234
mp-510098,EuAu5,-0.42999690250000605
mp-778485,Ba2Ga6O11,-2.52860963868421
mp-768979,Ba3Y2Cl12,-2.800219164999999
mp-770571,Ho2WO6,-3.299127436388888
mp-604594,Ce2In5Pd4,-0.5820882143939371
mp-28196,KH9O5,-1.348374966066667
mp-762529,Li2(FeO2)5,-1.537668195098039
mp-561725,CsBO2,-2.602319912205459
mp-770524,Li4Mn3V3Cr2O16,-2.299913633825944
mp-8621,K2PtSe2,-1.088003907837501
mp-770972,Li2Ni3BiO8,-1.3546826724404761
mp-30735,Ho5Sn3,-0.705871321874996
mp-24263,KP(HO2)2,-2.185270198361607
mp-776442,Ba2YI7,-1.865578482
mp-971684,C3N4,0.088740559642857
mp-28166,K3BrO,-1.56421230635
mp-772632,Li4Co5Ni3O16,-1.308706739404762
mp-1400,HfW2,-0.16878251833333002
mp-765102,LiTi(PO3)4,-2.7067211177910053
mp-11854,Er5Ge3,-0.8024571637500001
mp-11840,BaAg,-0.275995824583332
mp-761819,Li4VFe(TeO6)2,-1.938759641833333
mp-777916,Li4Fe3Cu3(TeO8)2,-1.6196795234523802
mp-18376,KHgC3(NO)3,-0.8536179817954551
mp-19774,Eu(CdSb)2,-0.554503040999998
mp-22279,Ba2EuNbO6,-3.210084799500001
mp-942704,LiCoHSO5,-1.830797941898148
mp-984700,CeY3,0.075262796250001
mp-567931,InSiTe3,-0.306195786
mp-1002106,HfPd,-0.6029058700000001
mp-3348,LiBIr,-0.5883477088888891
mp-6474,Ba3MgNb2O9,-3.266047576
mp-570904,GaNi2,-0.30052139
mp-780204,LiMnP4(H2O7)2,-2.2551284585348252
mp-10886,Al3Cu2,-0.195314849999999
mp-1006882,CdC,2.108579146249999
mp-29380,K2Te2As,-0.8438403913166671
mp-769662,Li2TiFe2O5,-2.321395845
mp-706518,TlCrO4,-1.48334825201389
mp-769021,Na2CuO2,-1.253313765551723
mp-697096,Na2H4Pt,-0.452144137857142
mp-683957,Nd4CuTe5(ClO5)3,-2.381394771011904
mp-28002,Rb3Mn2Br7,-1.5945946361135062
mp-29160,TiAg2O3,-1.8721297306944442
mp-744025,Sr8Mg3Fe(MoO6)4,-2.7779586323750003
mp-672257,Tm2Ga8Fe,-0.43429335272727404
mp-684509,LiSn(PO3)3,-2.497155506054422
mp-982016,Tm3Ga,-0.302525388750005
mp-910,NbC,-0.535804569999999
mp-11203,Lu6FeSb2,-0.5971422588888871
mp-643791,RbP(HO2)2,-2.174769913705357
mp-690518,Na(CoO2)3,-1.129204899137931
mp-555506,ZrCrF6,-3.57145699875
mp-3179,Tb3(CuSi)4,-0.6818103772727291
mp-972202,TcAs3,0.35974533500000305
mp-995282,LiAlB4,-0.086125481603536
mp-649608,K3Pr2(NO3)9,-1.466868037745934
mp-759211,La2H22S6N6O23,-1.446771724788134
mp-585,MnB2,-0.307147019827586
mp-2662,MnP,-0.615244508786946
mp-27450,KCuCl3,-1.29111858725
mp-6478,LiTaGeO5,-2.756111356958333
mp-706339,MgB3H15O13,-1.762524513945313
mp-541668,SbP2O7,-2.387248134428595
mp-770630,RbLi2Cr2(BO3)3,-2.518617068039216
mp-999027,Ti3Al,-0.17853670874999802
mp-567022,K3Bi5(AsO4)6,-1.851730957414474
mp-974045,La11In9Ni4,-0.49700914229166904
mp-1800,Nd2C3,-0.317560050999998
mp-540829,RuF5,-1.872036438333334
mp-19168,LaMnO3,-2.994589143586208
mp-30723,Th2Hg,-0.203606812499998
mp-973325,Li2MgGe,-0.271959936666666
mp-770510,Li5MnO4,-2.05774984070977
mp-760798,Li2CuF5,-2.364089374770834
mp-11799,PrNi,-0.285582925833332
mp-28727,La4Bi2S9,-1.803025003020832
mp-998610,TlAgCl3,-1.011150190999998
mp-21571,La4In5S13,-1.535388584957385
mp-865149,PaAlRu2,-0.604847784999996
mp-560282,K2Ba(NO2)4,-1.379379104133333
mp-850365,Ni5Te(PO4)6,-2.023284495125661
mp-556605,ZrO2,-3.796956807499999
mp-672313,Sc6Pb5,-0.558008870000001
mp-12648,Ti2Be17,-0.198588641666666
mp-777465,Li3P3(WO6)2,-2.497922331696429
mp-771911,Ni3(PO4)2,-2.073124101291209
mp-21167,Ni2P,-0.47382519154761904
mp-776363,Zr2N2O,-2.335620429249997
mp-555421,Na3TmSi2O7,-3.064922186856765
mp-30800,NdZn2,-0.367923294166668
mp-560777,K3Hg3S2Cl5O6,-1.636755775355263
mp-10796,HgSeO4,-0.9649444916406221
mp-5540,SrB4O7,-3.016896000138888
mp-705680,La2Mo2O9,-2.793216375000001
mp-770486,Li3Ni2SnO6,-1.784013984166666
mp-775225,Nb3Ni(PO4)6,-2.692674508760505
mp-18978,Sr2MnO4,-2.695346935418719
mp-38,Pr,0.014565703333335001
mp-34376,Tb2CdS4,-1.843084071190475
mp-761269,Li2AgF4,-2.349864717976193
mp-585339,LiCu2P5O16,-2.221381058189483
mp-1005831,Tb2Co3Ge5,-0.582742916833333
mp-756495,Li3CuO2,-1.651503665833333
mp-973894,LaNdZn2,-0.313390088124998
mp-769582,Sr5Ta4O15,-3.477598544763891
mp-977575,MgSbRu2,-0.21622489125000002
mp-560966,K2RuNCl5O,-1.498724784699999
mp-4549,SrSiN2,-1.40951232125
mp-865944,ThSnRu2,-0.40484929750000004
mp-12889,ZrU3Sb5,-0.7467565422222211
mp-1001015,Y2ZnS4,-1.929540753137753
mp-28429,Na2PrO3,-2.299044726154214
mp-7433,NaCuSe,-0.7227659013541671
mp-694955,NaLi2La3Ti6O18,-3.4369442967682
mp-757305,Li2TiP3O10,-2.747393434308036
mp-752943,Li4Cu(PO4)2,-2.444268620841269
mp-974832,Rb3Pb,0.007015786875000001
mp-638009,RbPPbS4,-0.970266135663264
mp-2960,HfSnRh,-0.727332077222224
mp-644533,Yb2Ga10Ru3,-0.584841632666666
mp-754435,LuAlO3,-3.722812292333333
mp-541415,KH5S2O9,-1.682514074323528
mp-560658,Na5Bi2As5O18,-1.908905668646553
mp-10461,NaSr3SbO6,-2.734771699216301
mp-698313,Rb2CuH4(C2O5)2,-1.549146662857143
mp-757669,LiCuC2O5,-1.618273540370371
mp-977403,Na3Tl,-0.094140162499998
mp-556009,MgTlAs(H6O5)2,-1.500888863833333
mp-17966,KInP2O7,-2.6116539071093072
mp-770500,Na6Mn2B4SO16,-2.3425952099415372
mp-504944,NaP(HO2)2,-2.114307901690271
mp-780132,NaCr6O11,-2.148411580354405
mp-12187,Na2Mg2(Si2O5)3,-3.122745594510344
mp-776751,Li4V5Co3O16,-2.167687740119047
mp-974799,Rb3Sr,0.136833766874999
mp-4822,Y(SiPd)2,-0.9437063279999991
mp-696128,Li10Ge(PS6)2,-1.1886923753047611
mp-764957,Li2CoSiO4,-2.495667078645834
mp-29345,LiGaI3,-1.006771274666666
mp-542662,Ga2Te2Cl7,-1.000938627499999
mp-5373,Y2Ti2O7,-3.74501564060606
mp-630883,Ni6Mo2P3,-0.46871397119046904
mp-38816,Mg(TiS2)4,-1.631835875256409
mp-556562,LiAsH6(OF2)3,-1.9306210293137251
mp-696019,Na3P2H4O7,-1.956455898338977
mp-997008,TlAuO2,-0.769558824583334
mp-2179,TiRe,-0.448716374583327
mp-775286,Li2Fe3NiO8,-1.51352489047619
mp-2632,TlF3,-1.974226001249999
mp-1008867,NaCuO,-0.6863907787931021
mp-774350,Mn6OF11,-2.850571506532567
mp-558608,Nb2PbO6,-2.736617490740743
mp-541600,RbLaTa2O7,-3.382045553833332
mp-756810,Sr3Ta4(O6F)2,-3.577772882349206
mp-541740,TaPO5,-3.107759103496598
mp-978514,SmTm3,0.049770684999998004
mp-752728,Rb2S2O7,-2.116046234545459
mp-755792,LuGaO3,-3.165389938333334
mp-32787,Ho2S3,-2.341740573104167
mp-32684,HBr,-0.49469028812499904
mp-18271,Na5Ti2Si2PO13,-2.9440710005741773
mp-697692,LiCr(PO4)2,-2.368053050843254
mp-16505,La3Al11,-0.421035652499999
mp-21052,Tb2InPd2,-0.943706961999998
mp-12381,PrSnRh,-0.831037698888889
mp-568624,Tb2B2C3,-0.45913413491071403
mp-559441,LiTiPO5,-3.03283544610119
mp-612670,YNiBC,-0.503242483541666
mp-999516,MnP,-0.45760718378694604
mp-976884,PrBiPd2,-0.6926631279166661
mp-864835,Hf2CoIr,-0.674844285
mp-676586,Na(VS2)2,-1.2563594801970441
mp-705390,Li3Fe4P9O32,-2.322519145453868
mp-571550,Sb2TeSe2,-0.46154598827083204
mp-780184,Na2Cr4O13,-1.6826360188294012
mp-680781,Rb3Tm(SO4)3,-2.179588050263158
mp-977053,Pm3Er,0.026896489791663
mp-4228,Nd(CoSi)2,-0.697864005499999
mp-597,TiNi,-0.37315426499999904
mp-864951,MnAlOs2,-0.261294584482758
mp-761873,KTiF4,-3.450014134888889
mp-778057,Na2SnO2,-1.720972566051723
mp-29002,SrMgSi2,-0.306889258125
mp-765394,LiNiPO4,-2.303536162925169
mp-511,PrGe,-0.9224159208333341
mp-754871,Na3BiAsCO7,-1.8447312116644552
mp-1013706,Sr3BiSb,-0.519670038
mp-540331,LiMn(PO3)4,-2.541030345268655
mp-30182,ThAl3Ni2,-0.6543779616666661
mp-19737,LaMnSi,-0.6145346348275851
mp-571405,NdTl,-0.38732067541667003
mp-976892,Na(TeMo)3,-0.501976929285713
mp-607080,NdCu9Sn4,-0.146812188035713
mp-7951,ThSe2,-2.023257866874994
mp-759288,GaH5(NF)2,-1.0974375528749991
mp-3456,Tb(CuSi)2,-0.6412724780000011
mp-9364,RbSmS2,-2.080729654375
mp-850280,Na8SnO6,-1.630428347735632
mp-696701,HPbClO,-1.465996723437499
mp-19847,Tm3InN,-1.224040253750001
mp-777917,Li4V5Cu3O16,-2.053016501904762
mp-17105,Hf9V4S,-0.23942527053571203
mp-695830,Na2Cu(HO)4,-1.355551300250783
mp-556585,MnF2,-2.966967116810346
mp-996995,MnAgO2,-1.431450102399425
mp-972941,NaBi3,-0.095076640000002
mp-30734,Ho5Rh3,-0.7268013762499941
mp-752959,Sc5Cu5O13,-2.5317624313043483
mp-773671,MnFe(PO4)2,-2.351567730601395
mp-561454,KAu(SO4)2,-1.676990848937499
mp-28760,KRbS,-1.176483886583332
mp-14439,K5TlO4,-1.393179652208333
mp-721707,H6C3N4O3,-0.805610119374999
mp-37906,LiMgN,-0.8117910368055551
mp-21054,PrSnPd,-0.897920292222224
mp-9512,SrAl2P2(O4F)2,-3.334375912285714
mp-5077,NaLi2Sb,-0.7055747683333331
mp-4562,La(GeRh)2,-0.905555073000002
mp-12783,Sr(CdGa)2,-0.33262087699999704
mp-657300,RhSCl5,-0.867226708333333
mp-763176,Mn3(O2F)2,-2.1368870998659
mp-504771,LaCo8P5,-0.6466085964200671
mp-772342,Y2W2O9,-2.870395381346153
mp-11240,DyAu,-0.838420510833334
mp-850257,Li3V2P4(HO8)2,-2.531951748558201
mp-8535,ErSi2Rh3,-1.059357048333332
mp-774586,Nb3Sb(PO4)6,-2.752647603466386
mp-762412,Li2Mn3O6,-2.073909020496343
mp-715035,VO2,-2.422587112708335
mp-552234,SrBiBrO2,-2.337092985000001
mp-646749,Nb2Ni4O9,-2.076364263500001
mp-760533,SmZr4O9,-3.666831877857142
mp-20832,Zn(InTe2)2,-0.61450366857143
mp-35630,Pr2CdSe4,-1.6894958203869042
mp-862378,Sc2TcAu,-0.5072878362499981
mp-7421,KZnAs,-0.465293413249998
mp-1019315,TbSbPd,-1.025380868888888
mp-28950,P4N6O,-0.7901425662337641
mp-755450,La2Ce2O7,-3.893460453636365
mp-769025,K2Mg2O3,-2.244047649928572
mp-32958,Sm2F,-1.7868480483888902
mp-30792,NaPb,-0.269950954999998
mp-697670,KAlSi3O8,-3.244951727480768
mp-23319,RbVCl3,-1.8713178875
mp-754663,Na2Be2O3,-2.404590689679803
mp-568346,HfBrN,-2.005601068333334
mp-11532,Zn11Ni2,-0.16232694807692402
mp-1431,MnSi,-0.360731700991379
mp-557569,SmAsS,-1.7315185633333332
mp-883,HoN,-2.059664416874998
mp-1169,ScCu,-0.2565679075
mp-761021,Li3Cu(TeO3)4,-1.576769843833333
mp-9480,KAlSiO4,-3.184236963892856
mp-2588,YCo3,-0.06666458
mp-568685,TmAlRh,-0.9473090383333371
mp-977011,H3PbCI3NF3,-1.063218816979166
mp-865432,Y2NiIr,-0.604801184999999
mp-1018054,HfPt3,-1.176484360000003
mp-1018022,NbInS2,-1.114172520416666
mp-767471,Li5SbS,-0.9469994555952371
mp-941221,Li(BH)5,-0.346036746249999
mp-30639,Th2Fe7,-0.062678944166664
mp-770765,Na3MnBAsO7,-2.187534427787356
mp-1016874,SiHgO3,-1.720048743500001
mp-19242,YNiO3,-2.465712242
mp-568759,NaNd4I7N2,-1.714661474384236
mp-672676,U(WC)4,-0.16647632027779002
mp-697540,K3GeH2NO3,-1.4711622679249992
mp-772625,Na2SnBAsO7,-2.132936059952106
mp-867155,Sr5Cd2Sb5F,-1.282951104999999
mp-989515,LaMoN3,-1.071882640000001
mp-3591,NdBRh3,-0.696287231333332
mp-753517,SrBi5O9,-1.7610202196666682
mp-865520,YCdPd2,-0.7095643300000011
mp-28155,LaNb5O14,-3.166535799124999
mp-865181,EuGeO3,-2.600853746999999
mp-30858,ZrPt3,-1.122151413750003
mp-600220,InH6(CO3)3,-1.467448218114035
mp-560528,K2Ce(PO4)2,-3.011579851829669
mp-863737,Ho3In,-0.24399049791666003
mp-2752,Nb3Au,-0.112583049999997
mp-1001613,LuGa,-0.7140119558333311
mp-623590,RbV2SeO7,-2.128239048394886
mp-754596,RbGaO2,-2.05098305875
mp-18984,Na2ZrNi(P2O7)2,-2.7248032032422733
mp-5836,ThSiO4,-3.826331624166665
mp-697784,LiFe2(PO4)3,-2.240043390125661
mp-861979,Ir2S3,-0.48724733868750103
mp-977354,HoTaOs2,-0.33864374558333304
mp-763342,FeOF,-2.039134532777778
mp-639506,SiO2,-3.253925137500001
mp-28485,Sb5IO7,-1.626472503461538
mp-9930,UPSe,-1.131133512328868
mp-561233,Sm9(SbO)5,-2.391459268684212
mp-12854,ZnCu2GeTe4,-0.39786391520833203
mp-1009135,MnP,0.037833573713053
mp-763447,Li5Ti2Co5O12,-2.107153793055555
mp-977576,NdZnAu2,-0.586275844374999
mp-981,SrF2,-4.20881278
mp-542804,La5NiPb3,-0.5414248338888881
mp-39140,Na4Al3Si3HO13,-2.957191427573635
mp-6044,Sr6B(PO4)5,-3.249417187886905
mp-983152,Li3Re,0.8359992687499991
mp-12075,Tb(FeB)2,-0.43130138699999904
mp-862321,LiAsPd2,-0.5105556197916631
mp-989602,LaReN3,-0.922901400750001
mp-560527,SiO2,-3.253802676666667
mp-579552,La2CO5,-3.275854045937501
mp-766374,LiSiBiO4,-2.482239865952381
mp-972119,SrCaTl2,-0.49382606999999706
mp-978625,Sm2MgTl,-0.24785554958333403
mp-756238,Sr2CaI6,-1.917714192222222
mp-14152,SmNbO4,-3.537960958333332
mp-686722,Na3TlH24(ClO2)6,-1.1568794223363321
mp-540809,Zr2Fe12P7,-0.7353782572619051
mp-13203,ScCuSn,-0.5841547516666681
mp-7032,HfMoP,-0.9675499626587241
mp-11098,YbMgPd,-0.7149410083333311
mp-13097,NaZnAs,-0.414957609626436
mp-28614,NaBPt3,-0.5153459865000001
mp-862995,Er8Ga3Co,-0.415341891041663
mp-782647,Li2MnP3O10,-2.553530020220391
mp-30967,Tb12Co7,-0.14882054236842002
mp-18851,NaCr(WO4)2,-2.245235919698275
mp-759704,Li2Cu2P4O13,-2.302439253344672
mp-997589,La8Al7InO24,-3.5674334321666663
mp-781772,Li2Mn3VO8,-2.168818058961412
mp-567513,Ho(SiIr)2,-1.086479175000001
mp-760062,Na3Ti8O16,-3.186394190585354
mp-677703,Nd4Si4N7ClO3,-2.185695517105262
mp-776589,Li9Sb3P8O29,-2.540990692084547
mp-776260,Zr2N2O,-2.333230336249997
mp-12620,NdSeF,-3.229419413854167
mp-694873,SrLaNiRuO6,-2.259729206999999
mp-769486,Na3Ni2P2(CO7)2,-1.98640798297494
mp-559994,La6S4BrN3,-2.218904148928573
mp-13994,Ti3NiS6,-1.493799035999995
mp-850186,Li4Mn2Co3Sn3O16,-1.858180092649834
mp-559373,Ge4PbO9,-2.022244144642857
mp-762240,K2Li2TiO4,-2.540023648833333
mp-7310,ZrPbF6,-3.510055982500001
mp-775337,Li4Fe2Ni3Sn3O16,-1.6846607999404761
mp-28628,Li3FeN2,-0.513993481666666
mp-567966,RbZr6CCl15,-2.204675973043478
mp-20469,YbIn3,-0.46300385374999903
mp-27471,NbPS,-0.964380885714285
mp-976446,MgMnO3,-1.875530193586207
mp-762011,LiCrCoO4,-1.8822504440476182
mp-558170,Rb3PO4,-2.496436364642857
mp-540133,LiCoP2O7,-2.307778652056276
mp-779269,LiMnF5,-2.633407236133005
mp-634430,VO2,-2.102557889166668
mp-652548,MgMn3(CuO4)2,-1.825547182235222
mp-850401,Li2FeOF3,-2.678992005595238
mp-2763,Nd2O3,-3.775887380999997
mp-677391,Tm4Zr3O12,-3.9796935210526323
mp-558326,SiO2,-3.256096763148149
mp-7586,Ni3C,0.084183336249999
mp-767276,Li5Fe5Si7O24,-2.561828896991869
mp-555313,ScBiO3,-2.771496174
mp-21276,PbS,-0.7840503037499971
mp-755435,Tl2Au,-0.028241393333341
mp-19959,LuTiGe,-0.6977305716666671
mp-647556,Tl8(CdN14)3,0.08839522798742501
mp-780497,Li2MnFe(BO3)2,-2.418481914410919
mp-972275,Ti2ReRu,-0.6359912952083341
mp-15965,Hf5Si3,-0.7861504581250031
mp-28065,ThNCl,-2.420877790416663
mp-22440,LuSiIr,-1.11838936888889
mp-29770,Na3(Mn2Te3)2,-0.7578427641662261
mp-30677,Tm3Ga5,-0.713883603437501
mp-774318,Li10Fe3Co3(NiO8)2,-1.689802675686274
mp-555030,NaY(PO3)4,-2.8974592994417083
mp-542816,Zr5SiSb3,-0.892823721666666
mp-979074,TmO3,-1.9916963612500012
mp-1716,Rh2O3,-1.0714212435000001
mp-662,NiSe,-0.255344032031249
mp-989540,Sr6Sn2NO,-1.158692742
mp-975296,RbHoO3,-2.300576585499999
mp-757365,LaTa3O9,-3.524297150153828
mp-24066,SrHClO,-2.458535836562499
mp-19282,Sr2ZnWO6,-2.663847809000001
mp-639135,Pr3RuCl3,-1.6607171275
mp-4076,VCoSb,-0.189397489999999
mp-643367,YCBr,-1.242935380000005
mp-30197,K3ErCl6,-2.370378161208333
mp-950995,Li6PS5I,-1.290889804010988
mp-631320,TcIrOs,0.506931218888884
mp-6919,ScSnAu,-0.7841686600000011
mp-769545,Li10FeNi9O20,-1.532034710083333
mp-567907,P3N5,-0.48987264595982205
mp-9003,K2NbCuSe4,-1.1693720467343751
mp-11982,Sr2CaTeO6,-2.803740488666666
mp-560866,LiLa(PO3)4,-2.9424519467724872
mp-9791,Tl3AsS3,-0.522284857321434
mp-975200,RbSrO3,-1.3587918005000001
mp-20622,SiPd3,-0.6013364706249961
mp-555769,ScBiO3,-2.7707475025
mp-770689,Li2MnAl2O6,-2.679661604963427
mp-560208,K3NbAs2O9,-2.258836051283334
mp-2562,MnS,-1.1258302186476281
mp-696127,Li10Ge(PSe6)2,-1.038369361629762
mp-770954,Li4Nb2V3Cr3O16,-2.604384563690476
mp-14307,Mg(ScS2)2,-2.064758899999999
mp-756325,La2(SiO3)3,-3.48750892107143
mp-7560,LuBO3,-3.5691515161666683
mp-756599,La2ZnO4,-3.2478440160714293
mp-849542,Li2MnVP2(HO5)2,-2.39787730841019
mp-29841,Rh3S4,-0.6062629511309511
mp-757963,K2MgH8(CO5)2,-1.764086942586978
mp-754064,MnP2,-0.43128027573891603
mp-29157,Si3P2Pt,-0.45572319515873205
mp-27304,K2MnCl6,-1.6414557374425272
mp-36538,La2PbS4,-1.9857481142857152
mp-555904,NaSmGeO4,-2.829869232339901
mp-13008,NdCrGe3,-0.403187484333332
mp-975134,KRhO3,-1.184232334449999
mp-569175,ZrCl4,-2.006411403
mp-772511,Li4Co3Sn5O16,-1.943085261011905
mp-608398,NbSNCl6,-1.1734376058333331
mp-6698,Th2Cu(PO4)3,-3.167140958551586
mp-769032,Li3NbS4,-1.396420788125
mp-35482,Ti(FeO2)4,-1.9039596356410242
mp-720583,Na3B3H2O7,-2.356551098275861
mp-5313,HoCo3B2,-0.493031105555554
mp-974584,ReAu3,0.655107361250003
mp-542314,NdCuSO,-2.261039174999999
mp-600049,SiO2,-3.236673260208333
mp-8179,LiTlO2,-1.4590466741666681
mp-568718,HfAl3,-0.43728276999999904
mp-28878,RbTe6,-0.26189561250000104
mp-540884,YCl,-1.7067246037500001
mp-622624,Rb2Cr2As2O9,-2.0992869275
mp-865471,VGaTc2,-0.30492847249999805
mp-23614,SrNb2Bi2O9,-2.6803581721428573
mp-28657,Na2MgCl4,-2.158690503965517
mp-2095,Rb2Te3,-0.9586328204999991
mp-7193,Lu2Si2O7,-3.72417785166666
mp-21175,TaGaNi2,-0.35774493433333604
mp-753947,LuHO2,-3.048494049479167
mp-556821,RbEu(SO4)2,-2.382658171875
mp-977441,MgPaRh2,-0.621889128749999
mp-10552,RbBSe3,-0.832793233739582
mp-30746,YIr,-0.7990102449999991
mp-4360,NaCdF3,-2.660950373275862
mp-617632,La3AgGeS7,-1.809153059930555
mp-863404,Li2Cu2F7,-2.218874977121222
mp-770857,V(SbO3)4,-1.8433700310294112
mp-4660,Tm(FeGe)2,-0.44005815599999903
mp-23586,Hg6S4Br3Cl,-0.6336834532142881
mp-16511,Mn3Al10,-0.23770068029177802
mp-24165,Li2H2SeO5,-1.670436007151042
mp-631316,Li2GaSb,-0.49841570213767905
mp-764318,Li2VFe(P2O7)2,-2.628309046904762