material_id,formula,formation_energy
mp-974253,HoErZn2,-0.348218943749996
mp-9453,Sr2ZnCu2(SO)2,-1.7072806950000001
mp-616597,ReHgO4,-1.757885774583333
mp-568726,Mo(SeCl6)2,-0.544551925988368
mp-50,Ta,0.009149912666664001
mp-765706,Li2VFeO4,-2.184916711458333
mp-623862,Rb3Tm2Cu4Br13,-1.5945985630681832
mp-567524,K3Ga3As4,-0.45314396717499805
mp-567748,Zr2Al3C4,-0.6250937844444431
mp-767036,Li2Co(CO3)2,-1.935288755378788
mp-754185,Y2MgNi2,-0.34925218300000005
mp-17329,PrS2,-2.010746186180554
mp-570403,TbCd3,-0.252897010416665
mp-754126,CuAuO2,-0.675147459999999
mp-561814,RbB5O8,-2.835142179523795
mp-758620,LiCu2(CO3)3,-1.49397584488889
mp-4768,Eu(SiNi)2,-0.641890452999984
mp-15957,Sc15C19,-0.547402738474789
mp-773139,Li4V3Sb5O16,-2.094958954047619
mp-744747,V2P2H4O11,-2.156970280093985
mp-23174,ReCl3,-0.7714202237499991
mp-775315,Si6Bi9O26,-2.337729845243904
mp-866688,Cs4P2PdSe8,-0.990326858777093
mp-16358,ZnNi2Ge,-0.23688176624999902
mp-777423,Na6Ti2O7,-2.533026730996168
mp-773177,Na3CoAsCO7,-1.928776898395226
mp-39239,SrLaMnRuO6,-2.600653000293105
mp-752526,Lu2TeO6,-3.054852358796287
mp-697168,MgH6(NCl)2,-1.002225144772727
mp-777563,Ta2H15N6Cl7,-0.872422984947222
mp-756948,Li4Cu3SbO8,-1.625882341458333
mp-604613,La2Ga12Ni,-0.42640995000000004
mp-611836,O2,0.009970109999999002
mp-642625,Hg12SbBr(ClO3)2,-0.700052242803034
mp-9719,Na2LiAlP2,-0.6294795821462771
mp-973919,NpOsO3,-1.642031166749999
mp-17909,SiO2,-3.251443987222224
mp-996989,LiAgO2,-0.805429973749999
mp-553896,K3MoF6,-2.927756605174998
mp-8909,RuO2,-1.392823295833332
mp-6137,Mg4P6SN12,-1.048474256319875
mp-10620,LiPrO2,-3.094627863749999
mp-667343,Re2(HgO2)5,-1.431642174558825
mp-30380,GaAu2,-0.146765094166667
mp-27726,SO2,-1.521880410833333
mp-30856,ZnPt3,-0.312519874999996
mp-20322,La(CuGe)2,-0.6056744510000011
mp-558707,K2UAs2O9,-2.4502032006785712
mp-1014212,Si,0.525495500000001
mp-10606,Sm3TlC,-0.338132242666669
mp-976848,NiRuO3,-0.161081927
mp-4816,LaGaS3,-1.684705853187499
mp-4408,Sm2Zr2O7,-3.85569428090909
mp-2816,Nd2Tl,-0.26462637777778003
mp-861955,LiPm2Ge,-0.426732410833333
mp-14378,Li12Al3Si4,-0.132159855789473
mp-769800,SrEu4O5,-3.1026560165000032
mp-1018687,ErS2,-1.87844954798611
mp-673069,Sb(PO3)4,-2.357908105357142
mp-998193,RbSnF3,-2.7423671595
mp-2547,YbPd,-1.002640602500001
mp-15355,U(BRu)4,-0.497272020555559
mp-778245,Li4FeF8,-2.721069981987179
mp-707377,RbHSO4,-1.928126661071428
mp-20666,SmIn2Rh,-0.6019173158333331
mp-755512,Sm3NbO7,-3.6839251963636332
mp-763057,Mn(CoO3)2,-1.2939049508812261
mp-505281,CsSbS6(O3F)6,-1.9340963007704741
mp-27389,KSb2F7,-2.806088612725
mp-675710,K2U2O7,-3.3226041204090873
mp-571537,ZrCl2,-1.804783084444445
mp-755004,CsInO2,-1.729526690330459
mp-756560,Li2Ti3O7,-3.192186945972221
mp-774547,Er2GeO5,-3.39246240270834
mp-771275,Li4V(TeO4)3,-1.873630454166666
mp-778794,V3Cr2Sb3O16,-2.126851384999999
mp-756437,SrLaBr5,-2.414229094285713
mp-581733,Zr4CuP,-0.560960381607143
mp-30528,MnTlCl3,-1.415745785752875
mp-698627,Ti5Fe11O24,-2.290890454166668
mp-16989,K5SnAs3,-0.420843784305555
mp-29998,La3SbI3,-1.5287287807142862
mp-445,NdCo2,0.05842926750000001
mp-763609,Li4Mn5O10,-2.0622595375257102
mp-18566,LaSnF7,-3.4903794819444443
mp-676820,Tm2Zr8O19,-3.765445518448277
mp-770648,Li8ZrO6,-2.408581163777778
mp-31322,La6OsI10,-1.5637860547058842
mp-631661,Y2FeB,0.6790665102083331
mp-560632,NaGaSiO4,-2.710485432220855
mp-557384,MgUB2O7,-3.205660014621211
mp-555052,MnSb2F12,-2.724095755862031
mp-775226,LiMn2(BO3)2,-2.4246221304571582
mp-21893,MnTe2,-0.42263970816092405
mp-546125,ScAsO4,-2.6847117654166652
mp-754556,Nb3N5,-0.9574430648437491
mp-760002,Li3Cu2F7,-2.449759603333332
mp-12944,HoAsO4,-2.847563612916665
mp-961698,LiZnP,-0.523291766547618
mp-769289,Y2Hg2O5,-2.386983860277778
mp-13066,Er2O3,-3.997353955499998
mp-571057,KY(PSe3)2,-1.06768733930982
mp-974063,HoScRu2,-0.43229550999999905
mp-42897,NaPrTiNbO6F,-3.362534379216301
mp-21620,U2Si5Tc3,-0.513831194130853
mp-559747,La2Ti2SiO9,-3.677706238333333
mp-22387,U2N3,-1.747005365499995
mp-1484,Pr4Sb3,-1.243236638095238
mp-772899,Li3ZrO3,-2.559844061071428
mp-703545,SbH6C(NCl2)3,-0.8124917936764701
mp-18240,Tl2Cu2SnS4,-0.532658789074075
mp-22228,DyCoSn,-0.477068743055552
mp-978881,SnAs3,0.354681655520835
mp-1009582,NiC,1.090464141249999
mp-8861,Rb2MgF4,-3.33899116
mp-3792,YAlO3,-3.7122381155
mp-780477,Li3MnV(PO4)3,-2.61078563034298
mp-754113,TmClO,-3.547094703333334
mp-18773,WO3,-2.184858871875
mp-758104,Mn11Pd21,-0.22531005147629102
mp-865715,Li2PrTl,-0.34116255624999703
mp-25840,LiTi2(PO4)3,-3.017262740079365
mp-953,NbZn3,-0.163834115000001
mp-556417,Rb2NiF6,-2.389794803888885
mp-977558,MgPaRu2,-0.37923765874999804
mp-560128,EuHSO5,-2.2627186939062502
mp-17751,Y5Ge3,-0.9292755918750011
mp-625860,Sr(H8O5)2,-1.370617039814815
mp-557574,Cu2HgGeS4,-0.5297745340624991
mp-15417,K2GaP2,-0.453809846507141
mp-696683,K3SnHF8,-2.880980994846154
mp-558272,Na3ThP3O11,-2.974830912114804
mp-16305,ScPRu,-1.189282456547617
mp-24727,TmH2,-0.7999909591666661
mp-9806,KGd(CO3)2,-2.553087157225
mp-570051,Tl2SnHgTe4,-0.44045064385416804
mp-33009,MnO2,-1.776003834310345
mp-5526,La(CoSi)2,-0.6662505670000001
mp-766254,Cu(PO3)3,-2.186996017417583
mp-865227,TmMgCd2,-0.24973138875000203
mp-15795,LiDySe2,-1.9649048499479131
mp-627,NpSe,-1.299778385546872
mp-570577,SrAlSi4N7,-1.401743141538463
mp-772573,Li2Cr5B3O13,-2.470098337355071
mp-9339,NbP,-0.988663269821428
mp-28891,Li7TaO6,-2.494037494333333
mp-757138,Li2Sn(PO3)4,-2.49246722132832
mp-680232,K2AgC3(SN)3,-0.34139916459893205
mp-705528,NaCaB5H8O13,-2.219159465971881
mp-1018126,GaBi,-0.006901732500004001
mp-978795,Sm3Hg,-0.19657326187500201
mp-673656,Y2Se3,-2.1394990024375
mp-16691,SrLi2Ti6O14,-3.393170181050724
mp-985593,NaAg(CO2)2,-1.4700549928807471
mp-10226,NaYS2,-2.13529353640625
mp-505332,LaFeSi,-0.558507544999995
mp-28321,Sc7CI12,-1.3581963635
mp-2090,FeCo,-0.055374125
mp-631488,NiRuBr2,0.53241105
mp-753357,SrBi5O9,-1.778133489666668
mp-973395,Ho3ReB7,-0.701770433636364
mp-561243,Sr2CuClO2,-2.505375169444444
mp-680813,SrIn6Cu7,-0.11456934071428701
mp-771028,Li3SiBiBO7,-2.413697305705128
mp-773607,LiTiNiO4,-2.33395431845238
mp-558580,Na2Zn(SiO3)2,-2.705025007068965
mp-561396,Li3CrF6,-3.152750621000001
mp-556075,SrDy2O4,-3.73484630333333
mp-18717,SrVO3,-2.878867755
mp-782034,YNb2NO5,-2.935744851666667
mp-18935,K2V(PO4)2,-2.669670406445054
mp-20521,ScInPt2,-0.909457302916667
mp-554825,K2SnP2O7,-2.545925729482141
mp-571665,Ho(SiPt)2,-1.108000900000001
mp-6074,KRb2TiF6,-3.298384584558333
mp-774374,Na3FeO4,-1.496680905673491
mp-8020,LaTiO3,-3.5975505326666672
mp-11697,TaSb2,-0.16808569077777702
mp-676524,Tb7(CuTe4)3,-1.348216515454546
mp-556233,KAs4ClO6,-1.730736970604168
mp-27517,Rb2CoI4,-1.122183679285713
mp-770808,LiB2SbO5,-2.415428627685186
mp-997085,SrAgO2,-1.824237780416666
mp-600000,SiO2,-3.25690691
mp-19830,ErN,-2.099608916041667
mp-19069,NiAgO2,-0.799491137916665
mp-973545,Ga3Te,-0.013794085416668002
mp-764571,Li2VFeP2(O4F)2,-2.682597685059525
mp-19792,Zr(Fe2Si)2,-0.48054721785714205
mp-677250,K2LuZr(PO4)3,-3.186997959873433
mp-770362,Li3Al2VO6,-2.795954020208334
mp-771396,Li4(FeO2)9,-1.5722452917204301
mp-721253,Li10Si(PSe6)2,-1.074566643429761
mp-5794,Zn(GaO2)2,-2.176957137857143
mp-780207,Li5FeO4,-1.9847467809166661
mp-769538,Li3Mn2(SiO4)2,-2.586597474390805
mp-1973,NbGa3,-0.35195045499999905
mp-8484,ZnO2,-1.058444209166666
mp-850340,Fe4O3F5,-2.1368899975
mp-755537,Y2HfO5,-3.977348098750001
mp-1702,LaRh2,-0.6871725016666641
mp-571209,Y3(B3Os4)2,-0.36567045735294
mp-504922,UPbO4,-2.967640787499997
mp-768915,Na3AuO3,-1.3641995052339881
mp-775122,LiLaNb4O12,-3.104497707129629
mp-759128,Li3Sb2(PO4)3,-2.446805196446428
mp-11538,TbAlNi,-0.589970818888888
mp-15886,Na2US3,-1.7164010397395821
mp-756981,K2SbPCO7,-2.266041721595237
mp-890,NdIr2,-0.8006958375000011
mp-20382,Ti6Sn5,-0.39302460727272703
mp-625513,Te(HO2)2,-1.286458672738095
mp-772627,Ho2(WO4)3,-2.7419752694117623
mp-769373,Na6Sn2P(CO4)4,-2.029484959238576
mp-30519,Tl3PbCl5,-1.397299918888889
mp-276,TbNi2,-0.43123975722222
mp-4458,Th(MnSi)2,-0.636671789793103
mp-27368,NaLi5Sn4,-0.25420517480459703
mp-5824,Hg2NO4,-0.739543580714287
mp-1922,RuSe2,-0.523511360208331
mp-553901,H6RuN3Cl3O,-0.786798135714286
mp-1016927,TiZnO3,-2.284075239666666
mp-8201,Rb3PdF5,-2.498825820277778
mp-971957,Tm3Pb,-0.233656857500004
mp-1018118,TmSbPd,-0.766460703602144
mp-12613,LaNiSn,-0.6333772400000001
mp-542271,Y2H16S3O20,-1.834112063231706
mp-22482,ErMn12,0.062168094836428
mp-771992,Na2Fe2C4SO16,-1.7244148634103451
mp-27775,U(BiO3)2,-2.552848464444443
mp-973777,Hg3F,-0.48833514312499204
mp-11726,LaSi4Ni9,-0.5679900817857141
mp-561286,ZnS,-0.9625883041562501
mp-12866,SrSnO3,-2.633699613500002
mp-10221,Pr3(NiGe)4,-0.6376720213636351
mp-864824,LiTbAu2,-0.7089497049999981
mp-30607,ErMg2,-0.032926027499999004
mp-15599,K2Ca2(SO4)3,-2.519272619973683
mp-570099,RbVBr3,-1.548504270166666
mp-756732,Rb3Sn4Au,-0.22204743406249902
mp-21934,In9Pb4S17,-0.8042059452499981
mp-622570,Ti2Cu3,-0.127568277666665
mp-28279,Gd2NCl3,-2.369061423958333
mp-510402,GdS,-2.233706316406248
mp-849470,Li7Co(O2F)2,-2.197197502738094
mp-775852,Li4Sb2C4SO16,-1.917020341882714
mp-9850,DyP5,-0.6370583499801581
mp-774370,Li6Mn5Fe(BO3)6,-2.480742104295976
mp-849331,Ti2N2O,-2.1301088293333352
mp-556066,Sr2LiSiO4F,-3.363684869814814
mp-850972,Li4Mn5Cr2O12,-2.153071538390804
mp-554063,SmSeClO3,-2.462941755390624
mp-557658,RbZnB(PO4)2,-2.652137123919414
mp-13448,Zn11Rh2,-0.269332416538462
mp-867802,Sc2CuOs,-0.40887275999999806
mp-21511,K2NaInP2,-0.40402125863861404
mp-569287,TlPAuSe3,-0.260937070860606
mp-13939,Sr2ErReO6,-3.03235778425
mp-765289,LiSnPO4,-2.388346556139455
mp-752863,K4N2O5,-1.279653620363636
mp-9068,K2NaAlP2,-0.69576564390873
mp-7221,Nb5(AsPd)4,-0.50205456076923
mp-3488,Na2Ti3O7,-3.160181039813217
mp-15985,Zr3(Cu2Ge)2,-0.48481662333333403
mp-570238,P10Au7I,-0.15810278619047602
mp-12180,NaS2,-0.705851476458332
mp-636654,LaTiNbBi2O9,-2.840082874166667
mp-849416,Li4Fe2Cu3O10,-1.453578767543859
mp-775021,NaLi3Fe4(SiO3)8,-2.746084959284483
mp-505335,Ho2Mn3Si5,-0.6225257480948271
mp-571541,Sr8In4Cu3N5,-0.5929313110833331
mp-767430,Na3CdPCO7,-2.257984603367752
mp-780053,Na2Ge2O5,-2.132607471556513
mp-11666,Pr2(Zn2Ge)3,-0.42067859621212006
mp-675012,Ho2Zr8O19,-3.752943509827585
mp-1013916,Li3V2(GeO4)3,-2.219808372375
mp-559379,SbTeClO3,-1.554748624861111
mp-20202,MgSn4Ru,-0.201730412499999
mp-4025,TmNiSb,-0.9622721633333361
mp-695295,H22RuN7(ClO2)4,-0.41638966696428603
mp-975206,RbSbO3,-1.7992110385000002
mp-19321,Na6MnO4,-1.540519866018809
mp-567369,Nd4Mg3Co2,-0.09089408277777901
mp-690674,NdAsSe,-1.602838564114583
mp-558133,Rb2MnF6,-2.902140161436781
mp-850283,HfNbO4,-3.335994633333333
mp-777479,VO2,-2.4543528725000012
mp-645568,TlCr(MoO4)2,-1.971569551736112
mp-780370,Sm3Al5O12,-3.6439628383749962
mp-3427,LiAlO2,-3.082882981458333
mp-19875,GdSiRu,-0.8194931200000011
mp-27280,Na2MnCl4,-1.840785687068964
mp-1005850,Yb3U,0.33852751749999005
mp-581805,Ni3Mo3N,-0.23421933857142802
mp-31361,EuIBr,-2.121622472500001
mp-10318,Tb2Co3Si5,-0.7281323513333321
mp-780879,LiMn3P3(HO6)2,-2.405153868026428
mp-3747,Ti3AlC2,-0.761240068333335
mp-23503,Na3InCl6,-1.751821308999999
mp-763201,V6O7F5,-2.7481329999999993
mp-23926,K2HgH2Cl4O,-1.5820886222000001
mp-2406,Mg5Pd2,-0.450578344642856
mp-1018155,MnSn,0.8166159835344821
mp-982188,Y(Mn2Fe)4,0.08932233435013201
mp-29006,P2SO3,-1.8119212515476182
mp-699137,Li4(CoO2)7,-1.369912495333333
mp-642974,SrCrBi12(Mo2O17)2,-1.887968818076924
mp-621926,Na2TiSiO5,-2.91415320109355
mp-567787,LiInAg2,-0.23021192916666403
mp-631366,TcSnSe,0.857410703229165
mp-21352,NaIn2Au,-0.280138357428159
mp-570713,TiAlPt,-0.9877609472222221
mp-643263,Na3VH6O7,-1.743100037449289
mp-763659,Li3V2(FeO4)2,-2.151691066666666
mp-557463,Na3ScSi2O7,-3.023075551472148
mp-773119,Na2MnAsCO7,-1.988914695682471
mp-773087,Li2MgCu2(SiO3)4,-2.659573449126984
mp-9964,Ti3TlN,-0.845159385416667
mp-17119,SrCu3(SnO3)4,-1.843855835499999
mp-974962,Rb3Ho,0.6445837831250011
mp-558054,SrLi2Ta2O7,-3.2097863259444432
mp-18468,Mn5SiC,-0.15497016182515902
mp-558336,Ho2O3,-3.9958732551666643
mp-11734,Sr2MgReO6,-2.8633491387500003
mp-974586,Rb2MgH4,-0.22452279928571403
mp-999337,NiHO2,-1.002221455312499
mp-555939,Li2Te2O5,-1.849199789444446
mp-552454,SrTaNO2,-2.701130137466667
mp-18961,ScCrO3,-3.130813287000001
mp-755609,Y2SeO2,-3.387872640468751
mp-780149,Li2Mn3(BO3)3,-2.450832209879987
mp-754534,Li2CeO3,-2.998827910277773
mp-542180,Th(TeI)2,-1.343993580666666
mp-975336,KCSN,-0.49128630796006806
mp-755635,Ho2Pt2O7,-2.466693449999999
mp-765719,Mn6OF11,-2.83600142375479
mp-758151,Li3Ti(PO4)2,-2.806494429651361
mp-559550,SiO2,-3.256951121666668
mp-556541,InSb2S4Cl,-0.7862124902083311
mp-962,SmZn2,-0.378332965
mp-30358,TbAg2,-0.313665986666666
mp-631510,HfBe2Bi,0.8497631600000001
mp-975140,RbZn4P3,-0.29940863142857005
mp-770408,Rb6Ti2O7,-2.509190043444444
mp-557940,KNd(CO3)2,-2.546365839725
mp-571172,In2Bi,0.042666876666662
mp-555568,K2Zn(Si2O5)2,-2.946104038647059
mp-23626,RbLi2(IO3)3,-1.395937227444445
mp-771083,Li6Fe2P(CO4)4,-2.108806774298028
mp-19374,K2SrNi(NO2)6,-1.213852720772727
mp-625541,Sn3(HO2)2,-1.498729433333331
mp-14753,Li7TaN4,-0.9784915460625001
mp-865255,LuNbRu2,-0.43273548166666403
mp-770718,Mg(IO3)2,-1.3526636225000002
mp-567130,Nd(SiIr)2,-1.154888087500001
mp-558650,UCu2(PO5)2,-2.485950907285713
mp-669388,Gd2Se2O,-2.7998750604375
mp-7446,Rb2S3,-1.086621892499998
mp-777622,LiFeF3,-2.7687157971666663
mp-865983,TmCdHg2,-0.318185343750007
mp-29034,Tl2GeTe3,-0.418645059444446
mp-779773,Na5GdO4,-1.993261127814655
mp-780483,Li2MnFe(BO3)2,-2.419088008299808
mp-680240,Sb2Cl5F4,-1.857264932045454
mp-31470,Na4TlAu,-0.203975012916667
mp-30836,TaPd3,-0.47368206683333003
mp-21242,LiYbPb,-0.5533633961111121
mp-1009,SrSi6,-0.06114121357142901
mp-15336,Sc2Cu2O5,-2.562479393333333
mp-770699,KLiMnO2,-1.823669557702874
mp-19519,Ni3(AsO4)2,-1.532284189423077
mp-758604,LiAgF2,-2.102235912916667
mp-777185,Li4V2(PO4)3,-2.683386693441044
mp-769242,Li2Cu(HO)4,-1.415050967651515
mp-32398,Li3Ni(PO4)2,-2.392374400484694
mp-14651,Zr2AgPdF11,-3.127832708444444
mp-977187,La2MgTl,-0.26549694708333504
mp-581586,Tl8Sb21As19(PbS17)4,-0.52964404590972
mp-778884,LiFeBO3,-2.281723836435185
mp-22483,NaInTe2,-0.7743100253448261
mp-15379,K2SiO3,-2.6680551528333343
mp-29871,Na4SeO5,-1.6840520935361
mp-505064,Nb2P,-0.8191149139550271
mp-9365,RbTbS2,-2.096626694791664
mp-973198,Na,0.0047273466666660005
mp-20948,NbNiP2,-0.729331512321427
mp-21819,U2Cr30P19,-0.425468637635376
mp-29080,Na3YBr6,-2.008347049913793
mp-17698,K6CdTe4,-1.108454179560604
mp-1553,HoNi5,-0.33053895249999804
mp-704962,Li3Mn3(PO4)4,-2.4901395760524823
mp-10080,PrGeBO5,-2.957194700104167
mp-775239,Li4Mn3Fe(BO3)4,-2.461814804533045
mp-20043,ErGeRh,-0.9901156549999991
mp-2072,KTe,-1.013552613124998
mp-24488,NaZn2H3(SO4)2,-1.6501129265705812
mp-863696,Pm2MgSi,-0.26432274250000104
mp-13450,HfSb,-0.6129251225000011
mp-649086,GaFeO3,-1.952254804249999
mp-542807,Cu2Te2Br2O5,-1.151411038484848
mp-10200,ZrBeSi,-0.722523771666665
mp-7387,KAgF4,-2.027953733152777
mp-685982,MgIn2O4,-2.268342827190476
mp-706276,Li3Nb4O12,-2.781331264210527
mp-772566,Ho2(WO4)3,-2.769026879117645
mp-621581,P3Rh4,-0.7727946066326541
mp-28518,Tl6SBr4,-0.9704920715909131
mp-559112,K2Zn6O7,-1.728494229299999
mp-758097,H6C2N4O,-0.5058854019230771
mp-755342,LuGaO3,-3.198725921833333
mp-16839,Na3WN3,-0.6036836980911311
mp-625392,Lu(HO)3,-2.300110124345238
mp-768125,Na3GePCO7,-2.194314064521599
mp-11764,HoSnPd,-0.908984421666661
mp-756277,Er3TaO7,-3.88635655021212
mp-15239,Nd3Ga5O12,-2.9055332575
mp-699229,HPb3ClO3,-1.479226862656248
mp-24195,MgP2(H8O5)2,-1.408171371096059
mp-649957,Cu3Mo2O9,-1.4773587758928581
mp-973767,PmBi3,-0.45992198062499706
mp-555089,SrLi4Ca(SiO4)2,-3.036285777395833
mp-774106,Li3Fe2(SiO4)2,-2.499411177
mp-24151,DyH2,-0.801221917499998
mp-625150,ScHO2,-2.9613998003125
mp-766031,NaMgH4SO6F,-2.026411907419951
mp-559903,NaLa(SeO3)2,-2.182082805356657
mp-3975,K2TaF7,-3.507735569683334
mp-556645,RbNbAsClO5,-2.330440385555556
mp-30211,La5Sn3I,-0.9109283911111121
mp-969,YbAl2,-0.5678372516666671
mp-1019794,K3LiP2O7,-2.671974138028388
mp-22056,YIn2Ni,-0.42510257208333
mp-22349,Sm(FeGe)2,-0.44818918699999205
mp-554071,Na8Nb2Cu4S21,-0.940423624672412
mp-17753,Nd3RuO7,-3.0752952643181812
mp-22426,ScSiNi,-0.8650193874999981
mp-768815,NaSbAsCO7,-1.764934000352663
mp-644758,Fe2Mo4N,-0.13659678071428502
mp-31358,RbBO2,-2.622254900833333
mp-612861,La(ReSi)2,-0.5133965889999921
mp-974365,RuAu3,0.39021503499999705
mp-2012,LiHg,-0.376031632083332
mp-22648,FeCu2SnS4,-0.583377755624999
mp-756428,LaTh4O10,-4.126057385666665
mp-28371,K2Zn3O4,-1.708242246055554
mp-558432,Na3P(SO)2,-1.844556974691348
mp-9023,ScSiAu,-0.8063665049999991
mp-690058,FeP2O7,-2.202243455678571
mp-850973,V3O5F,-2.5971552188888882
mp-20190,LaZnSn,-0.771629116666664
mp-21850,Fe3SnC,0.069676896000001
mp-554552,Zn3P2H2O9,-2.158921154174107
mp-677430,NaLiLa2Ti4O12,-3.445699688402298
mp-1009538,PdC,1.216097716250001
mp-667386,Na3Sr4Al5F26,-3.871635892543103
mp-2511,PbF2,-2.543082179166665
mp-723043,K2TeH6SeO10,-1.494657953300521
mp-28447,Mg(BiO3)2,-1.7018789144444422
mp-1068,CuS2,-0.176051346041667
mp-28369,GeH3Cl,-0.40454953074999905
mp-567322,KSm2Sb3Se8,-1.247280546857142
mp-780155,Li9Fe3(OF7)2,-2.835716280357143
mp-862720,Sr2CdIn,-0.379173486666666
mp-19930,Nd2Ru2O7,-2.507212133181818
mp-628715,KEuPSe4,-1.235555926609693
mp-867362,K2SrIn7,-0.21811515111666502
mp-19945,Gd2MgGe2,-0.763256176999999
mp-17486,Ho3CuSiS7,-1.799584653124997
mp-770523,Li4V2Cr3Fe3O16,-2.159647649761905
mp-714944,VO2,-2.342145126666668
mp-765238,Li4V3OF11,-3.125417484385965
mp-1812,Hg5Au6,-0.001952477500005
mp-7030,LaSiNi,-0.7015016166666631
mp-781495,Na2Co2O3,-1.399837253965517
mp-9854,YP5,-0.6391986149801591
mp-777781,Li2FeF4,-2.8390782991666663
mp-17829,Sr3SmRhO6,-2.879632841363637
mp-15316,SrMgF4,-3.9598784124999993
mp-974464,ReH3,0.37381912125000105
mp-607169,Eu(GePt)2,-0.722349019
mp-541550,Mg16Si8HO32,-3.079127875460527
mp-30788,SnMo3,0.055091641249997006
mp-20635,TbIn5Rh,-0.40651753857142503
mp-10748,TaCu3S4,-0.8680332296666661
mp-21493,U2Ga8Ru,-0.406297135000024
mp-6916,Sm(BC)2,-0.528827930999997
mp-754717,RbBrO4,-0.8399150054166671
mp-699399,K2BaNi(NO2)6,-1.006498431568182
mp-11558,Sc5Re24,-0.260590049137927
mp-780320,LiMn3(BO3)3,-2.393246404976652
mp-569538,LaNiSb3,-0.7644393335
mp-770493,Li5V2Fe5O12,-2.030398202777778
mp-504812,Hf3P,-0.8571107432440571
mp-555940,Dy2Te5O13,-2.195683625083332
mp-5889,Er2Ti2O7,-3.779598183333331
mp-18922,Mn5O8,-1.956560843050398
mp-764744,V2OF5,-3.043587385833333
mp-676778,KBiF4,-2.745292284541667
mp-770651,Li10Fe9CoO20,-1.919925418083333
mp-1585,V3Co,-0.145599318750001
mp-12488,CsErCdTe3,-1.272890386609196
mp-21162,SrPb3,-0.42401861249999906
mp-28185,TaClF8,-2.542517350233333
mp-866685,Er2(Ga3Co)3,-0.47577402482142706
mp-557516,K2Be2Zn2Si3O11,-2.809918850974998
mp-568428,KNa(BH4)2,-0.41161558864583303
mp-769518,Na3Mn2P2(CO7)2,-2.2409134910559
mp-767641,LiV2F7,-3.130669416333334
mp-768810,Sr4Br6O,-2.565056757272727
mp-541093,Nb2Hg3S(O2F5)2,-2.51551965075
mp-867121,LiY2Pt,-0.7231119595833341
mp-770522,Li2AlVO4,-2.696039519583333
mp-10621,RbSbS2,-0.9653269774999971
mp-561458,Na4Sc2(PO4)3,-2.897920312830752
mp-7107,Er(SiPt)2,-1.010667785999999
mp-721161,MgPH16NO10,-1.503423508953202
mp-757165,Li5FeS4,-1.157464482666665
mp-684958,TaO10,-0.6033501379393941
mp-9157,K3AlO3,-2.257201830250001
mp-6952,RbYbF3,-3.239705441250001
mp-673129,Sn(PO3)3,-2.423923231071429
mp-39123,Na3Zr2Si2PO12,-3.129091416939039
mp-10854,Tb(BC)2,-0.549091697
mp-759498,LiSbP2O7,-2.430133196374458
mp-849519,Mn6O5F7,-2.406153799310345
mp-776259,Hf2N2O,-2.52757252625
mp-771711,Li4V3CoO8,-2.246703823958333
mp-540592,Fe2(TeO3)3,-1.556715693035714
mp-510569,CsCeCuS3,-1.657662942859194
mp-781054,Li2Cr4O13,-1.6489896720175432
mp-743656,Na2MgB12(H4O7)4,-1.55977176835184
mp-865095,NaGaH8(NF3)2,-1.6975678321599612
mp-20954,DyTiSi,-0.7309316788888881
mp-770824,Nb2P4H3O16,-2.454533122492856