material_id,formula,formation_energy
mp-865214,Lu2TcAg,-0.23632068927083302
mp-772241,Li3MnAl2O6,-2.730759716702587
mp-21073,HoGeIr,-0.938101754999996
mp-20473,Mn2Ge,-0.043132871954023
mp-540631,KTa(GeO3)3,-2.480198996041668
mp-559388,U8FeS17,-1.670813840288456
mp-10846,NiAsSe,-0.314225984687498
mp-760501,TiGa2O5,-2.692172958541667
mp-7060,LaZnPO,-2.066136894910714
mp-570184,ThPd3,-0.9486101906250041
mp-1018936,PrSbTe,-1.386828901111105
mp-571094,Th7Ir3,-0.728711456500002
mp-32395,Li2Ni3(P2O7)2,-2.353340050227742
mp-510357,La4B4Br5,-1.5536867174358981
mp-3278,Pr(SiPd)2,-0.904726746333335
mp-10003,Nb4CoSi,-0.33668522583333405
mp-685941,In4SbTe3,-0.40126001583333104
mp-571382,Nd(CoAs)2,-0.752282786499998
mp-28743,K4Cu8Te11,-0.553395502927535
mp-773030,ScP2O7,-2.87628966092857
mp-3997,Sm(CuSi)2,-0.638962692000001
mp-542629,Rb2Mo9Se10,-0.8898149104017871
mp-30909,Sm(GaPd)2,-0.7830973839999991
mp-7234,Nb5N6,-1.178245385227272
mp-770941,Li4Mn3Nb2Fe3O16,-2.2705079813259452
mp-4903,Tm(CuSi)2,-0.609068221999999
mp-746030,NaFePO4,-2.406373996931737
mp-573815,ReI3,-0.348767611458335
mp-675446,NaRuO2,-1.384299340344827
mp-631337,NaTaNi,1.466883314222222
mp-19247,ScVO4,-3.041869945833333
mp-556343,SrGaBO4,-2.89733144720238
mp-8081,Na2SnF6,-2.9131886855555553
mp-677095,Na2CaSn2(GeO4)3,-2.309094244262931
mp-975920,PrSmTl2,-0.380325185833335
mp-975049,NdSmHg2,-0.556696038124997
mp-937761,Li7ZrO6,-2.35906106452381
mp-31348,Sc2In,-0.47041077500000006
mp-669325,TeWCl9,-0.7982041956818191
mp-776759,Mn2Fe(PO4)3,-2.31491930248837
mp-758784,YZr4O9,-3.7149481960714272
mp-775524,Li2V3FeO8,-2.335138387976191
mp-1568,K3P11,-0.374327798856292
mp-782053,Sr9La5Cl33,-2.701541652606378
mp-24560,LiB2H3O5,-2.172720308560606
mp-5699,K2CuF4,-2.523815685642856
mp-976148,K2RbSb,-0.41193682800000003
mp-971720,ZnGa3,0.12362838625000001
mp-556463,KGe2BO6,-2.3561772501416662
mp-19094,VO2,-2.480275698333334
mp-542512,NaPr2RuO6,-2.711197672471264
mp-9646,La(PO3)3,-3.011946069148352
mp-4667,ZrSnRh,-0.7713286744444451
mp-28649,NaTi8O13,-3.245529319683909
mp-695793,ZnAs4(HO2)8,-1.349725566206896
mp-17687,SrDy2CuO5,-3.085557710092592
mp-540566,V2Hg2O7,-1.7148465963636381
mp-570936,K(SnAu)3,-0.281010533892858
mp-29468,Rb6Cl4O,-1.95121591909091
mp-570822,Tb3AlC,-0.5037076540000011
mp-631592,Re2RuBr,1.037302777499998
mp-765675,Na2Ni3O5,-1.2830063292758611
mp-561066,TlS,-0.474122309635419
mp-768330,Sn2P2O7,-2.290046998268398
mp-33684,Ti(FeO2)2,-2.3525898826190472
mp-762215,Li2TiCo3O8,-1.9104478064285701
mp-571412,RbNa5(WN3)2,-0.5999449163854671
mp-698479,RbTeHOF4,-2.378894717864583
mp-769144,SnGeO3,-1.9061459250000001
mp-19896,Li2GePbS4,-1.061876898958332
mp-600018,SiO2,-3.255606931111112
mp-1019724,LiEuO2,-2.744163702083336
mp-27774,NClO6,-0.4386477025
mp-12160,Li6Ho(BO3)3,-2.822621197631578
mp-780510,LiMn3(BO3)3,-2.392502811851653
mp-866195,Li2LaTl,-0.264985338750002
mp-780197,Li2Mn3(BO3)3,-2.441729158409398
mp-2410,SrAg5,-0.17491912583333402
mp-22882,YbBr2,-1.661621450000003
mp-764002,VO2F,-2.420204271666667
mp-571478,SnHg7(As2I3)2,-0.326799813194447
mp-764528,Li5Fe8(BO3)8,-2.281648447111111
mp-775432,Li2V3TeO8,-2.23239138720238
mp-567398,Sr3MgGeN4,-0.8223308725
mp-555048,NaAlCdF6,-3.236002949597701
mp-773194,Li4Mn5V3O16,-2.239635237249591
mp-3581,Ta4MnS8,-1.368887532481872
mp-28941,HfAg2S3,-0.929111802656251
mp-999274,RbNaH2,-0.144405595344827
mp-22251,TbGaPt,-1.095143878888887
mp-756868,Rb3DyO3,-2.202003127738094
mp-733590,TlCuHCO4,-1.346683533906251
mp-559573,UAgIO6,-1.966903358935184
mp-770585,Li2TiCo3(PO4)6,-2.285754399107142
mp-982244,Pa3H,0.5237768502083281
mp-7467,RbCuO2,-1.357687516875
mp-758890,LiAg2F4,-1.710020351309523
mp-313,YC2,-0.172125136666667
mp-33255,Ni15O16,-1.079404247419354
mp-559292,P6Pb3Xe11F58,-2.019118585998168
mp-7226,V3Ni,-0.154015572499998
mp-20358,UInAu2,-0.407821551250002
mp-7220,NaY3SiS7,-1.824244827890628
mp-849383,Mn12O7F17,-2.561577550421455
mp-978908,TbTmRh2,-0.9015221441666671
mp-3799,GdSF,-3.292370790937499
mp-541594,Sc8Te3,-0.7760661538636361
mp-775132,NaLi3Fe4(SiO3)8,-2.746263725284483
mp-754249,Li3ZrNb(TeO6)2,-2.358603034385964
mp-758115,Li2SnP2O7,-2.551542112162697
mp-569482,LaSi2Ru3,-0.629874615833332
mp-8675,HgPd,-0.094228043750002
mp-980063,YbDy3,0.043644894999999004
mp-755364,NdSeO,-2.8743595082812483
mp-753497,Li3TiS3,-1.519040516547618
mp-772777,K3SrPCO7,-2.609685090876373
mp-558875,HoTe2ClO5,-2.246676288703702
mp-561117,SXeO3F2,-1.3216008423214292
mp-849412,V6O5F19,-2.7357844690000013
mp-2387,Th2Zn,-0.16844641499999502
mp-772260,Li10Ti4O13,-2.8064369426543223
mp-568944,Yb5Au3,-0.7737768674999971
mp-866076,NdAu3,-0.650295180624997
mp-999072,Ti2AlZn,-0.014344134166666002
mp-30055,Rb3BrO,-1.500405602499999
mp-569945,Tb2Ni17,-0.198731449912279
mp-28435,KFeCl4,-1.6327446499583331
mp-977189,Na3Bi,-0.48247701125000103
mp-974981,Rb3Mg,0.177609358125
mp-15257,Tb2Se3,-2.153581606572918
mp-29796,Ho(AlCl4)3,-1.8941276346875
mp-1019110,SmPbAu,-0.554344536666665
mp-23339,NaBrO3,-0.9990614762758611
mp-21001,Y(GeRu)2,-0.6461375420000021
mp-975198,RbTl3,-0.005344626875005001
mp-5477,Na5NbO5,-2.228964725172415
mp-675028,K(OsO3)2,-1.623810343583326
mp-560768,NaSr4(BO3)3,-3.102003600375254
mp-734019,Na2Zn(HO)4,-1.531324562523511
mp-3075,TlGeS2,-0.640596573958334
mp-34144,MgAl2O4,-3.360014531428571
mp-10114,ScB4Ir3,-0.5856188020833341
mp-771075,Li8MnO6,-2.032109250306513
mp-4341,Pr(P3Ru)4,-0.72779525455182
mp-29579,Sc7NCl12,-2.3213078785
mp-21248,NbSiIr,-0.8592984466666651
mp-753472,NbAlO4,-3.188611330833333
mp-23275,TiCl3,-1.779362912291647
mp-6219,K3Co(CN)6,-0.289807425109374
mp-779364,Li2CoBO4,-2.165084871354167
mp-1018041,Ti2MnIn,-0.051165427816092006
mp-24034,K3AlH6,-0.302516447875
mp-555447,NaScB2O5,-3.094573522745849
mp-12355,Sr2YTaO6,-3.5869652552333333
mp-642831,RbP(HO2)2,-2.181571264955357
mp-540946,LiReO4,-2.312902794305549
mp-7090,NaMgSb,-0.5565706387931041
mp-862431,Sc2AgOs,-0.37469696291666704
mp-8989,Na2P2PdO7,-2.338201858503694
mp-567600,Sm(SiAg)2,-0.45913238599999806
mp-4034,LaTe2Se,-1.58152371641927
mp-12480,ScPPt,-1.240844728214282
mp-566333,Na3Fe2Mo5O16,-1.940355878812997
mp-28030,Li8Nb2O9,-2.627819660219297
mp-779362,Li2MnFe(BO3)2,-2.417686388577586
mp-776520,NaLiTiAl(PO4)3,-2.957641276156555
mp-16794,Sc2Re3Si4,-0.6073584458333351
mp-9272,TlPt2S3,-0.691701527638893
mp-553962,Rb2LiNbS4,-1.4722196597916661
mp-2808,ZrRh,-0.8013510275000001
mp-560381,RbIn3F10,-2.873110771964286
mp-758520,LiCuPO4,-2.151815675068026
mp-34611,ZnAgAs,0.039595513611111
mp-676023,NaY3F10,-4.132753042500001
mp-26702,LiSn2(PO4)3,-2.523788800958995
mp-32495,Li3V3(PO4)4,-2.6900287270604393
mp-773039,Li2Ti6Zn3O16,-3.017936583765432
mp-37680,LiGdSe2,-1.9134489911979171
mp-6625,LaAgSO,-2.303094082291666
mp-975897,Hf2RuRh,-0.884543898750003
mp-18411,Na3GeSe3,-1.060587030167025
mp-761841,Li2SnP2O7,-2.530958892475198
mp-684504,Li3Bi2(PO4)3,-2.512523591821428
mp-31138,MnPd3,-0.228938158232756
mp-556088,SiO2,-3.165723067083333
mp-29955,Hg3(SeI)2,-0.505236284955359
mp-9807,KDy(CO3)2,-2.574390435391666
mp-773605,Na3Mn(BO3)2,-2.378766318991858
mp-644409,LiAlPHO5,-2.735646848802909
mp-531820,Li4Ti7O16,-3.262198724506172
mp-5326,Yb(CoSi)2,-0.784516142999999
mp-4415,Ho(CoGe)2,-0.5962811130000061
mp-3585,La(SiIr)2,-1.027113736999999
mp-1008866,NaAgO,-0.7450613493486581
mp-979961,Yb2AgHg,-0.48437973062500106
mp-753676,Ta2TiO6,-3.227954700333332
mp-11549,VPd2,-0.269569443333331
mp-32544,Ti9O8,-2.591554100882353
mp-646450,TbCoSn,-0.47753234055555505
mp-1069,HfSi2,-0.558635345000001
mp-4901,Y2MgCu2,-0.215355327999999
mp-862991,Pm2AgRu,-0.25973921374999803
mp-707373,MgH12(ClO5)2,-1.2137633526
mp-771570,Sr2CaI6,-1.857873851111111
mp-680552,Nd3Sn13Rh4,-0.569561617624999
mp-15900,Sr3Sc2Cu2S2O5,-2.722424895
mp-24197,Rb2CuH12(SO7)2,-1.558720560322579
mp-971803,ZnHg3,0.128094708749998
mp-568805,SmNiSb3,-0.716910392833331
mp-631694,InCoSi2,0.6061652174999991
mp-14588,Na2PtSe2,-0.9740806616249981
mp-975592,Pr3I,-0.24366341375000003
mp-571576,LaTe2,-1.6826708548611111
mp-14712,Li7PN4,-0.896406501636904
mp-867869,Sm2AgRu,-0.2817299925
mp-19442,Mn(Ni3O4)2,-1.361432144528734
mp-1628,TeRh,-0.352171089999998
mp-569128,SiB3,-0.0441499209375
mp-755870,Na5GdO4,-2.016249278189655
mp-770534,Li2Mn3O7,-2.011608467954981
mp-546285,NbI3O,-1.405361576999995
mp-763560,LiMn2(CO3)4,-1.7949386162734422
mp-13400,Sm(CuGe)2,-0.530388595000002
mp-780258,Na5LaO4,-2.035448494939654
mp-19509,SrV10O15,-2.512259845961538
mp-29713,NbTeCl9,-1.4398337587878771
mp-560887,ZnGaNO,-1.151551576875
mp-30229,Tb5C2Br9,-1.899611038177083
mp-697068,SiPd2,-0.679503392777778
mp-5983,Tm(CoGe)2,-0.5863840020000041
mp-669389,Sr3InRhO6,-2.485689400151514
mp-769595,Li4VCr3O8,-2.419807074583333
mp-5055,Na6MnS4,-1.280418367793886
mp-18148,K3TaS4,-1.513084057697914
mp-22051,LuGeRu,-0.7372437755555551
mp-780198,LiMn2(BO3)2,-2.413402724775338
mp-22240,MnAs,-0.265070552715518
mp-762710,Li3VFe3O8,-2.002784724666667
mp-763546,Mn(SbO3)2,-1.976880638936783
mp-7555,LiMgSnPd,-0.581613253333332
mp-777742,Li3FeS3,-1.115498085357142
mp-39511,LiCaTa2O6F,-3.396609473454546
mp-704810,K2Cr2O7,-1.856932604499999
mp-1755,ZnAu3,-0.157601969999994
mp-1013535,Sr3SbP,-0.32151753692857105
mp-977152,NpTiO3,-3.144405459416667
mp-558985,La3Si2ClO8,-3.6588336467857143
mp-9325,Sr3MnN3,-0.8703543947044341
mp-20192,HfMnSi,-0.665835814310346
mp-756633,Li3BiO3,-1.899930041428572
mp-17719,La3SiAgS7,-1.897706837013888
mp-699390,Pr4Si4N7ClO3,-2.171235543508772
mp-18572,KEr(PO3)4,-2.916155144767857
mp-645796,TlFe(MoO4)2,-1.829072953194446
mp-754741,ZrO2,-3.700072168333334
mp-5720,Ho(SiRu)2,-0.8828779309999981
mp-30657,TiGaNi2,-0.5410241252083321
mp-568400,Sc(AlC)3,-0.500590522142855
mp-7470,RbCuO,-1.188898820833333
mp-16620,LuAl7Au3,-0.5441324846969681
mp-558883,Y3Si2ClO8,-3.628211942678571
mp-680850,Ti8S3,-1.018810084696969
mp-28815,ThSnI6,-1.220796151874999
mp-769297,Sr5Ta4O15,-3.463685560805558
mp-12559,MnAsPd2,-0.23838140885775802
mp-21084,In6Ga2PtO8,-1.775095592058822
mp-626486,H4SO5,-1.4260685175
mp-778752,In2WO6,-2.02582872787037
mp-773507,MnNi(PO4)2,-2.154403601156951
mp-6757,Ho4Si2S3O7,-3.256883127031249
mp-4657,Li5GaO4,-2.216491645416666
mp-764556,Li5Fe7O3F13,-2.444812078809523
mp-760510,Sr2Bi2O5,-2.353507547222223
mp-765509,LiV(OF)2,-2.6423412276388882
mp-473,Na3P11,-0.298578826088434
mp-641117,La5Ti4FeO17,-3.58698732771605
mp-30244,Mg2H2O3,-2.278286676785714
mp-7774,Na2SbAu,-0.549332992499998
mp-762034,Li2Co2P2O9,-2.157605524063492
mp-542493,Sc5(Co2Si5)2,-0.6969271221052631
mp-999076,Ti2InNi,-0.095342695833332
mp-623751,Tb3Ni,-0.23453660812499702
mp-974451,K2Al2O3F2,-3.204007266055555
mp-18865,K3(FeO2)2,-1.566424215749999
mp-6892,Na6Mg2C4SO16,-2.249393921061242
mp-31310,Zr3(Mn2Si3)2,-0.6277566715749341
mp-22274,HoTiSi,-0.737937600555556
mp-753748,Li3CuS2,-1.154751894583333
mp-556737,Pr6Ti2S7O6,-2.947296141150792
mp-764098,Li2Ni3TeO8,-1.529100045238094
mp-510128,U(HO2)2,-2.576122922142855
mp-9037,CsPrS2,-2.077811845572913
mp-5479,RbAlF4,-3.6362549645833333
mp-9582,Yb(ZnP)2,-0.7374645341904761
mp-31354,Pr3OsO7,-3.061463035909092
mp-29806,Cs2PdI6,-1.034880172145595
mp-638749,Te3(PdBr)4,-0.697410387727271
mp-30759,LiMg2Tl,-0.086211086666668
mp-30615,Er6Zn23,-0.34266836534482603
mp-762351,Li4Ti7O16,-3.239361694691358
mp-442,RhPb,-0.136691916666663
mp-11457,HfRh,-0.8950685699999991
mp-973307,Mg5As,-0.1051206459375
mp-32983,Nb3S5,-1.420107923749999
mp-540540,PaBr3O,-2.542195351999999
mp-17036,Tb2Si3Rh,-0.9011358997222221
mp-30593,ZnCu2Ni,-0.12242532750000001
mp-755236,HoTiO3,-3.635615666166665
mp-18547,NaGdGeO4,-2.83483895091133
mp-13245,Tb(P3Ru)4,-0.638781730140054
mp-35220,PHN2,-0.521251344806547
mp-27409,RbNiBr3,-1.2659275505
mp-39823,Na8Al6Si6CO27,-3.018920060021551
mp-722902,LiH2NO3,-1.289980673690476
mp-782641,Na4V2P(CO4)4,-2.128224769080003
mp-781738,Na6V2B4SO16,-2.486658947325604
mp-2378,Th3Al2,-0.255775634999992
mp-762897,Li2V(PO4)2,-2.648345472765568
mp-1016886,MgVO3,-2.258337826
mp-849392,Li9V2P4HO18,-2.581699100288866
mp-989646,LaWN3,-1.194919717249999
mp-979987,YbThPt2,-1.221116231249993
mp-21178,U2Co3Si5,-0.49896237199999804
mp-20591,Yb2InGe2,-0.7318133490000001
mp-28828,Li6FeCl8,-1.903313034666666
mp-27932,Li9Ge4,-0.34472641423076905
mp-16947,LiAlGeO4,-2.687367997142856
mp-30959,LiHS,-0.934366159861111
mp-781604,VOF2,-2.858523329583334
mp-973091,LaHoMg2,-0.063145897499999
mp-557151,ZnS,-0.9511080561383931
mp-29043,Hg4Sb2I3,-0.350160547361113
mp-976881,Ni3S,0.013581580624999002
mp-720721,SiH18C4N8(O2F3)2,-1.192328424146341
mp-778583,Li3Mn2(CoO4)2,-1.514335391724139
mp-557705,OsO2F3,-1.8312547925
mp-1008278,Cr3Ni,0.15726529125000002
mp-639733,SiO2,-3.248647573472224
mp-1008624,YBiPd,-1.041455978333331
mp-49,Os,0.0
mp-770557,Mn2P2O7F2,-2.264842490203676
mp-755898,Er3TaO7,-3.88102149021212
mp-975142,RhI,0.1834307
mp-568151,Ti5Ge3,-0.7418544810416651
mp-1019269,Sr2H3I,-0.9963175347916651
mp-11883,MgIr2,-0.293149803333335
mp-21891,PrSi2Mo2C,-0.41842687111111104
mp-20270,UWC2,0.181771608125004
mp-21388,U(CuGe)2,-0.18565618006666101
mp-758056,LiTi(PO3)4,-2.670913726957672
mp-771647,La2Pt2O7,-2.282924232272727
mp-850978,VFeO4,-2.006059504166668
mp-10889,La3Al,-0.21735795124999702
mp-570786,KNa2,0.0029021212500000004
mp-22084,Zr(MnGe)6,-0.315353089814326
mp-765552,Li2MnCoO4,-1.891035322449712
mp-707201,Cu4H10SO12,-1.179274480370369
mp-24811,KTiH2S2O9,-2.09056649253889
mp-862334,Sc2IrRh,-1.042154367499999
mp-560562,Rb2CrF6,-2.958415418333333
mp-761563,Mn2FeO3,-1.774976544310345
mp-555407,Nd6Si4S17,-1.6901439591782421
mp-10911,Sc2Al3Ru,-0.6516289283333321
mp-9399,SmTe3,-1.1174111887500011
mp-4112,Tl2SO4,-1.6714632416666682
mp-555282,Ga2S5N5Cl7,-0.40255926872121406
mp-568735,SiC,-0.30579532083333305
mp-16037,Dy2TeO2,-3.327902807999997
mp-601852,La3Si2Rh3,-0.9179248831250001
mp-561326,LuSeO3F,-2.860409806501737
mp-550117,Sm4Se3O4,-3.165801031548299
mp-10721,Ti2C,-0.7262925011111101
mp-583463,FeCl3,-1.164680918333334
mp-631346,SrNiIr2,0.681506220000009
mp-775167,FeCu(PO4)2,-2.086375916190475
mp-698183,Mg3P2(H22O15)2,-1.558832202522604
mp-763729,Li3NbFe3O8,-2.125522257999999
mp-733455,Li3H6Rh,-0.486894067999999
mp-865713,Li2TlBi,-0.424853982083334
mp-850864,Ho2TiO5,-3.846181190104166
mp-743715,TiH10N3F5,-1.162486922149122
mp-985590,SiO2,-3.263110239166666
mp-22899,LiI,-1.393584991666666
mp-553909,Tl2(SeO3)3,-1.205015005264139
mp-760457,YBO3,-3.437200335833333
mp-14842,Mg3(Ni10P3)2,-0.47896040009852003
mp-760353,LiCu2F7,-1.8314782661666622
mp-774251,LiFePO4,-2.434372402210884
mp-570147,Sc6Si11Ni18,-0.7422140705714281
mp-1009720,RhN,0.7808823774999991
mp-625,Mg3Ru2,-0.125169126499999
mp-14015,HoMn12,-0.062913779907161
mp-568329,K3Na2SnBi3,-0.35438131911206905
mp-12237,HoP5O14,-2.831336060660713
mp-756134,ZrSeO,-2.677899939114584
mp-1865,UN,-1.5816823568749991
mp-642398,RbVSO6,-2.201899256388889
mp-631473,KTi2Bi,0.6661523673958271
mp-697807,LiMn4P7O24,-2.474201834376597
mp-556760,Nb2P4O15,-2.7662677389795913
mp-7955,Li3Sb,-0.7521129675
mp-22012,Tb(MnGe)6,-0.302014793404067
mp-763935,V6O7F5,-2.7496811505555563
mp-769612,Li6Mn3P6WO24,-2.544104279041256
mp-554089,SiO2,-3.266073725
mp-971757,ZnHg3,0.12175626124999801
mp-631311,IrOsW,0.5657257294444561
mp-757608,Hg2P2H4O9,-1.7184986678991612
mp-707096,K2P3H7O9,-1.835910815341837
mp-3338,NaGaO2,-2.216683605344827
mp-23866,H2SeO4,-1.103392158549106
mp-980084,Th(CuSn)2,-0.34569670500000105
mp-865443,LuRh2Pb,-0.5972035491666651
mp-28264,RbH3O2,-1.453589847708332
mp-673814,La3U2O10,-3.911857405666667
mp-2701,NbN,-1.204222389375001
mp-555866,K6Be4C6O19,-2.322617156528572
mp-774449,Li2Ti3SbO8,-2.897805184047619
mp-761730,LiCo3CuO8,-1.107127973333333
mp-6358,NaTiPO5,-2.997470088044437
mp-31471,K3PbAu5,-0.37176272125000404
mp-768204,Li2Fe2S3,-0.8975792820238081
mp-541049,Sr7Nb6O21,-3.268391995441207
mp-11629,Tb2Al6Si4Au,-0.392796674102567
mp-977113,MgPdAu2,-0.42962376374999905
mp-978552,SiRh3,-0.360563960625
mp-763299,Ni3OF5,-2.001044869444444
mp-568017,Ga8Cu3W2,-0.117008091538462
mp-28263,KH3O2,-1.462911832666666
mp-557387,Sr2TmNbO6,-3.453018481500001
mp-561258,ZnS,-0.9623525084062501
mp-10521,Y(AlGe)2,-0.40969330599999904
mp-30531,Ta2Se8I,-0.9030733607651511
mp-780323,V3OF11,-2.891340051666666
mp-764519,LiFe2(BO3)2,-2.262669402878787
mp-622198,Ti3(BiO3)4,-2.510433100789474
mp-543028,Tl2TeO3,-1.273872056180558
mp-510548,Y4Ga12Pt,-0.62397040882353
mp-684489,LiBiP2O7,-2.510157658647186
mp-21026,Li2InPt,-0.6413059658333321
mp-632706,ZnH8(N2Cl)2,-0.546565223333333
mp-557022,Sb8Cl2O11,-1.721948148809524
mp-3158,Li2SbPt,-0.7628624933333331
mp-11226,Tb3Al,-0.22897127000000203
mp-149,Si,0.0
mp-28746,Pr3RuI3,-1.167842017142858
mp-1009019,FeN,0.5526435374999991
mp-755487,Li2BiO3,-1.778880449444444
mp-571008,Pr(CoAs)2,-0.744972309333331
mp-19496,KV2SbO8,-2.2386957989375
mp-1001844,HoN,-1.1214649968749981
mp-4152,Ga2CoS4,-0.6269751645238091
mp-7436,KCuTe,-0.7233970996388901
mp-2717,Zr2Ni7,-0.427306064444444
mp-18958,UMoO6,-2.767629485937499
mp-559288,Gd(PO3)3,-2.979352516840658
mp-770406,Sm2WO6,-3.264933481388889
mp-773162,Li3Fe2SnO6,-1.951372814583332
mp-782666,Mn2O3F,-2.006823224727012
mp-753727,Y3I7O,-2.008859569545455
mp-11221,SmAl,-0.41386044000000005
mp-973732,LiHo3,0.200201149166666
mp-42089,K4Gd2C3O9F4,-2.829421522000001
mp-770702,Li2AlFeO4,-2.409819967708332
mp-541057,Rb4Re6S13,-1.050790581630434
mp-770544,LiAlCrO3,-2.606142341388889
mp-767498,Li10Ti11Nb6O42,-3.115917543478262
mp-555463,RbTh3F13,-4.349201232205882
mp-560934,Na2Zn5(PO4)4,-2.433343929123335
mp-753669,Hf(MnSn)6,-0.14791065283819402
mp-28507,La8Nb7S22,-2.055046622837838
mp-565431,Rb(WO3)3,-2.237899200192307
mp-775906,Y2O3,-3.8955823112499983
mp-867927,LiVIr2,-0.5806818716666661
mp-978494,SiSn3,0.32122945875000003
mp-17720,Sr5Sn3,-0.737352021874999
mp-781053,LiFeP3(HO5)2,-2.266896393662465
mp-22486,Tb(MnGe)2,-0.48646110650574004
mp-2889,LaPd3S4,-1.113890505781249
mp-756006,LiSbS,-0.9534255986111101
mp-18751,Mn2ZnO4,-1.9823252001231522
mp-640898,La6Mg22Al,-0.057727336206896004
mp-31168,Li2AlAg,-0.247168274583334
mp-753471,LiCuBO3,-2.050203122499999
mp-3897,SmPS4,-1.385817718898809
mp-568136,RbVBr3,-1.5489731195
mp-1851,SnPd2,-0.519858699166666
mp-760837,Rb3Nb20O34,-2.673855415131578
mp-570044,NbI4,-0.7669249155000041
mp-556517,K2PbO2,-1.536198562399998
mp-15902,Li2Ca2Ta3O10,-3.208209978745099
mp-556069,Tb11O20,-3.455036693333331
mp-1759,UF5,-3.7037346312500032
mp-8054,NaSc(GeO3)2,-2.636928682137931
mp-9245,LiGaPdF6,-2.445179319969131
mp-540416,MnP2O7,-2.37462956795977
mp-8479,Tl4SiS4,-0.7548987675925951
mp-1598,Na3P,-0.46160422324404704
mp-780444,V6O5F19,-2.7389448693333343
mp-555151,ZnS,-0.962192134441963
mp-29033,P3BrCl14,-1.066648072162698
mp-23023,LaBrO,-3.411858679999999
mp-1009787,RuC,0.9096720512499981
mp-864969,Mg2PdRh,-0.625471557499999
mp-20686,Ho2In,-0.33283179555554904
mp-706489,NaB2HO4,-2.460541837385954
mp-765544,Li4V3OF11,-3.115915923333334
mp-504742,Pr8Ga3Co,-0.352800397777774
mp-542222,Tb2H16S3O20,-1.84114867355691
mp-1001833,InBi,-0.071587387499995
mp-1008786,MgTe,-1.002967378333334
mp-976271,KTi2F7,-3.532796269891666
mp-18466,Nd2SiSeO4,-3.380635908730468
mp-28571,La2Br5,-2.330986979285713
mp-650928,K3Nb7O19,-2.964123697560344
mp-765501,Li2NiO2F,-1.98490091986111
mp-676014,NaAl11O17,-3.356714086082045
mp-999539,MnO,-1.9740157427155172
mp-29756,RbB3O5,-2.805382906111112
mp-1347,Th3P4,-1.613487723129253
mp-4068,Na2GeS3,-1.084484991709769
mp-631436,VOsCl,0.579969546944454
mp-556797,K2Si3SnO9,-2.8825441013
mp-6996,SmB6,-0.5186441035714281
mp-684022,LaTlGeSe4,-1.243106109851191
mp-647579,ZnBr2,-1.267659339375001
mp-38951,Mg(GaO2)2,-2.533066767857139
mp-862297,LiAlRh2,-0.7054825141666641
mp-12414,K(USe3)2,-1.401398797923608
mp-864675,Yb3N2,-1.5074439315000001
mp-779071,LiV2(OF)3,-2.726611179259259
mp-567900,Lu2Fe14C,-0.08911305049019401
mp-775271,Li2Cr3WO8,-2.342886569047618
mp-29514,PHF4,-2.398073845148818
mp-696225,K3P2H7O10,-2.002708356240259
mp-17904,Nd2TiO5,-3.7841771885416673
mp-11945,SmAl4Ni,-0.5561848233333321
mp-7431,Sr(ZnSb)2,-0.55789577
mp-554016,K4Ti2PO4F9,-3.357076941640476
mp-707788,NaCaB5(H5O7)2,-2.13019255015202