material_id,formula,formation_energy
mp-3472,PbSO4,-1.910636434166657
mp-504909,Ni2SnP,-0.39632478303571306
mp-976281,Li3Pd,-0.275359101428572
mp-545467,Li3(CuO2)2,-1.582540591111112
mp-1002114,VH,-0.18546599437500003
mp-19255,TiFe2O5,-2.309433176666666
mp-980205,YB4Os,-0.562490319444453
mp-541735,K4Ti3S14,-1.326334095190475
mp-29055,KSb2,-0.39162036458333205
mp-505721,Rb3VS4,-1.424777078749998
mp-567210,TbInAu2,-0.7040339158333341
mp-28778,KScF4,-3.9100464620416613
mp-672695,KAgCO3,-1.584039841069444
mp-16403,SnHgP14,-0.020491551041665
mp-754414,SrSm2O4,-3.611187283214286
mp-28219,TlCdBr3,-1.193658168166667
mp-27615,U(PO3)4,-2.830480845798318
mp-19740,YInPt,-1.133099115555555
mp-2688,HoGa3,-0.528708859374999
mp-7657,K3SiTe3,-0.9843654023214291
mp-631355,SrCrRh2,0.32639712125000003
mp-676467,Na3Al2P2O8F3,-3.066307082412425
mp-23407,Hg(IO3)2,-0.8044650508333331
mp-17468,SrZrSi2O7,-3.504254258636362
mp-625074,Ni(HO)2,-1.236138758499999
mp-555476,Na3OsO5,-1.782777301385694
mp-558487,GdP5O14,-2.814009589410713
mp-13499,HoMg2,-0.032502724999995
mp-757092,NdAl11O18,-3.374913260583334
mp-9801,HfCoAs,-0.8039544433333331
mp-684090,LiSbP2O7,-2.469853182510823
mp-770626,Li6Ni2P(CO4)4,-2.041340426366996
mp-972257,LaTb3,0.016554397499998
mp-22580,ZrGaNi2,-0.529860206875
mp-555521,SiO2,-3.25731407375
mp-767777,Li2V(Si2O5)3,-2.990388906527778
mp-28903,Zr6FeCl14,-2.0775658530952352
mp-976031,NaAc,0.17605368047414002
mp-1027,HfRh3,-0.8043756524999991
mp-706986,PH4NO3,-1.513232203571428
mp-764754,LiV3O5F3,-2.682945630277778
mp-776672,Li2NbV3O8,-2.5584355811904773
mp-555621,RbAl3(P3O10)2,-2.931556924678571
mp-24004,Zn2PHO5,-2.115679238988095
mp-555147,SiO2,-3.191422131666667
mp-569823,YInAg2,-0.412035615
mp-980662,YTmAl2,-0.43512229500000205
mp-769720,La2Ti3O9,-3.684434159642857
mp-17332,Sc5Ga3,-0.5810035168749981
mp-770785,Na6Mn2B4AsO16,-2.221010876320848
mp-30973,Ni3(BiSe)2,-0.23044672044643102
mp-1018745,LaSbPd,-1.271683155
mp-779900,Li4Co2Ni3O10,-1.4550442454385961
mp-7074,NaSc(SiO3)2,-3.317827060137931
mp-25950,SbP2O7,-2.34721149867857
mp-542598,Li22Si5,-0.18319499327160402
mp-18899,Nd2MnNiO6,-2.780404253293103
mp-774242,LiTaWO6,-2.624542423407408
mp-23110,NaHg2IO2,-0.9971919618965531
mp-6071,Sr3LiIrO6,-2.511016590757576
mp-11247,Li3Au,-0.403062934999999
mp-28641,ThB2O5,-3.414352945104166
mp-556932,TlPO3,-2.24528113634524
mp-30684,Zr3Ga2,-0.618283761
mp-1013705,Sr3BiAs,-0.490843560166666
mp-23399,Rb2AgI3,-1.290396494861111
mp-672654,Zr6Co16Ge7,-0.42104192586207
mp-13995,Hg2GeO4,-1.274128679285718
mp-707177,HC5N3(OF4)2,-1.436714156249999
mp-631256,FeNiMo,0.5593453566666651
mp-13829,TlCu3S2,-0.37718145472222303
mp-977563,LiNbIr2,-0.48770950833333304
mp-9937,USbSe,-1.024726392447914
mp-37995,Ti3Zn2O8,-2.891011295384615
mp-1314,Li12Si7,-0.216651247105263
mp-767412,Li3(CoS2)4,-0.8870954026666661
mp-2235,YbRh2,-0.8390280883333311
mp-6586,K2NaAlF6,-3.44334859958793
mp-779974,Hf2N2O,-2.532517969499999
mp-18620,Mg(PO3)2,-2.847031572420635
mp-754745,Na2SnO3,-2.06624707795977
mp-19026,Na4FeO3,-1.521574594439655
mp-761254,Li5CuP3O11,-2.505932711029762
mp-676264,YTh9O20,-4.241234010333334
mp-559360,SiO2,-3.255733744166666
mp-631309,LiHg2Os,0.6884562977083271
mp-1020159,Na2Si(S2O7)3,-1.952827080508619
mp-19147,NiCO3,-1.6542193050000011
mp-1019743,Ga3BN4,-0.6322928409375
mp-605028,Te2Pd3Pb2,-0.402809845714285
mp-773113,H12RuSN4(ClO)2,-0.768177391363636
mp-760093,LiTi8O16,-3.3808290841999993
mp-972549,SmLu3,0.005403381250005001
mp-675473,Li7MnAs4,-0.545861545105364
mp-1008807,RbCuO,-0.190537467499999
mp-10533,YCuS2,-1.591449781406249
mp-865934,YbF2,-3.500655691666665
mp-704544,ThV2O7,-2.915585814000001
mp-11204,Tm6FeSb2,-0.5918239455555631
mp-8716,K2MnSe2,-1.118830064423706
mp-35929,LiMnO2,-2.0976737940660932
mp-567982,TaSn2,0.012022175888887002
mp-1016929,MgRhO3,-1.229798679999999
mp-755355,La2Pr2O7,-3.331233522575756
mp-775817,Li5SbS4,-1.202930125166666
mp-555015,SiAg6SO8,-1.285976503593748
mp-644494,Rb2H4Pd,-0.37252191142857005
mp-29405,RbSnI3,-1.152261604499999
mp-777071,Li3Sb(PO4)2,-2.509008924591836
mp-6514,NaLaTiO4,-3.372114857101807
mp-11520,YNiSb,-0.9493987499999981
mp-772662,MnH4(SO5)2,-1.587162565760648
mp-752843,Li2CuF4,-2.542806373333331
mp-581419,K3Nb2Cu3S8,-1.196502549796875
mp-559814,Li5SbS3I2,-1.271056237424242
mp-631631,Mn5V2Pb3O16,-2.016048719602122
mp-5732,La2Si2O7,-3.673952493636363
mp-11280,TiBe12,-0.06213221948718001
mp-9657,LiAsO3,-1.9846346261666632
mp-554964,Pr7BP2O17,-3.557036568430334
mp-17487,NaErGeO4,-2.886538843768471
mp-1018768,Li3LaBi2,-0.8822767608333301
mp-1352,ZrN,-1.975506446875002
mp-646456,Tm2In8Co,-0.24773753393939402
mp-505270,TiSO5,-2.545002442083333
mp-976356,NdSc3,0.06864229687499901
mp-11585,La2MgGeO6,-3.25551475
mp-557257,KVF3,-3.03907132245
mp-773506,Mn5Cu(PO4)6,-2.294776599375342
mp-31194,Li13(Ga7Cu2)3,-0.32763215691666603
mp-18305,Rb3AsSe4,-1.0551996005468731
mp-18576,Tm2Cu(B2O5)2,-3.035146655392158
mp-735543,MnH6SO6,-1.437877452173646
mp-542020,Sc3B2Rh5,-0.8782702923333311
mp-979984,YbP3,-0.264220254732141
mp-1819,SbO2,-1.839006646249989
mp-569507,TbTlSe2,-1.6180324311718661
mp-770899,Li2V3O8,-2.358360512051282
mp-255,NaHg,-0.27093699875000204
mp-22889,ZnCl2,-1.290343958333334
mp-586092,Li3Fe5O8,-1.7782995015625
mp-745173,Na3Cd4P6H10(ClO8)3,-1.590265057689901
mp-17785,KNa2GaO3,-1.926652396429793
mp-554115,ZnS,-0.9623385472395831
mp-20646,Sm(MnGe)2,-0.47885019217240704
mp-690559,NaLa2Ti2MnO9,-3.282169028065134
mp-14686,Y5(Si7Os2)2,-0.6841676836956531
mp-4941,Sr2SnO4,-2.784467207857141
mp-569834,LiCu2Sn,-0.18911922583333302
mp-626800,ReH3O5,-1.632653470138889
mp-34913,Nd5ErS8,-2.301474526428571
mp-775013,Li4Mn3Fe3(SbO8)2,-2.015645833468801
mp-755867,Lu2Sb2O7,-2.78705675121212
mp-975321,LiSi3,0.22342531541666602
mp-15796,LiHoSe2,-1.962550009947914
mp-27263,Rb2MnBr4,-1.662182246133004
mp-21308,TbInPd,-0.9118470233333331
mp-767070,LiLa5Ti8O24,-3.626340367236843
mp-998746,TlGeBr3,-1.026766474666667
mp-774802,NbCu(PO4)2,-2.4742552491071432
mp-1523,ZrP2,-0.9591740530952371
mp-757076,SnP2O7,-2.524170882178571
mp-11566,ScZn,-0.381565497499999
mp-24650,YH2,-0.7996299991666661
mp-117,Sn,0.0
mp-961656,VFeTe,-0.21830708888888803
mp-773604,Na3Co(BO3)2,-2.161524078122605
mp-780850,Li3Mn4(BO3)4,-2.466480541451774
mp-755486,Na2SnO3,-2.045734867126436
mp-767527,Li6Sb3S,-0.739767265249999
mp-554701,SbP(OF3)2,-2.679027140464286
mp-643001,Na4H6Ru,-0.35453526340909103
mp-961696,MnCoSi,-0.17797269264367802
mp-560597,Na8Si6SnO18,-2.754670289576803
mp-11474,TlHg3,-0.027266808124998
mp-641281,Na4Pu(MoO4)4,-2.24760286217069
mp-867117,Sc2CuPt,-0.7990680525
mp-555840,K2PO4,-2.328952516306122
mp-1007661,InSb,-0.23224018499999802
mp-782649,Na4Mn2P(CO4)4,-2.007023509297118
mp-636476,SrCu3(RuO3)4,-1.4695830330000001
mp-977110,NaSnPd2,-0.4145077125
mp-380,ZnSe,-0.947540998671876
mp-754699,NaTi2O3,-2.751358795507663
mp-780470,Li8Mn3Fe5(BO3)8,-2.395150244245689
mp-9201,K4Ge2Au7,-0.34330075069230603
mp-1008813,RbAgO,-0.45591307805555503
mp-705380,LiMo2P3O13,-2.39803877617168
mp-561110,SiPb4(ClO)4,-1.9821562975
mp-8673,Li2SnTeO6,-2.003959109333333
mp-567114,Sr(BiPd)2,-0.5991461920000001
mp-961726,NbGeRh,0.008528901666667001
mp-11917,Mg(BeN)2,-1.185790383
mp-755169,Tl6S,-0.12267292821429202
mp-766973,Li8Mn(FeO4)3,-1.8808038793582371
mp-560637,GaS5N5Cl4,-0.17546437254687
mp-706335,Mg3P4H28(NO12)2,-1.731554077681497
mp-10534,Sm10S19,-2.128060659913792
mp-722890,Li3H6Ir,-0.541248367499999
mp-675128,Sc4Ti3O12,-3.7241358615789473
mp-2811,MoN,-0.546220418749999
mp-1018032,SrCdO2,-2.182773819999999
mp-14415,Pr2Be2GeO7,-3.222494771527778
mp-560466,Na2FeCuF7,-2.5608961888871473
mp-763225,Li2VO2F,-2.614271525277778
mp-17701,Sr2NbN3,-1.221069149583333
mp-29197,La3Br6N,-2.358272191625
mp-21199,Na3(GePt)4,-0.561276299090908
mp-973414,Lu2RuAu,-0.6756881333333341
mp-764736,V4O5F7,-2.7458714756249982
mp-553925,Rb5B19O31,-2.828643229939395
mp-530164,MgAl2O4,-3.362630751071422
mp-24578,MgH10(SeO5)2,-1.4443463853125
mp-778222,Na3VO3,-1.9121025688054192
mp-556904,KSbN(OF)3,-1.998784753444444
mp-505365,Mg3Nb6O11,-2.7617290999999993
mp-1662,Te2Au,-0.072704987083336
mp-19080,Na2Mn3O7,-1.937155033462644
mp-14205,K3Cu3As2,-0.29791358959375003
mp-767598,LiVPO5,-2.599374215059524
mp-567727,Pr2Co2I,-0.622087161666669
mp-21449,NbCoP,-0.8737311157142831
mp-21075,HfC,-1.122896435000001
mp-973286,LiLu2Pd,-0.486121329999999
mp-675766,K4CO6,-1.325479114909089
mp-772619,Li8Te2O9,-2.049378088157895
mp-1009005,IrN,1.499974662500001
mp-1019791,K2Zn(PO3)4,-2.592679571214285
mp-560920,SiO2,-3.255578040625
mp-13436,PrMgNi4,-0.30007284111110905
mp-755515,Lu2TeO6,-3.062371446666656
mp-559893,LiBi(PdO2)2,-1.383742147916666
mp-23067,K2PdCl6,-1.313050104722221
mp-15897,La4Si2S3O7,-3.32357439640625
mp-28962,Ti4Bi2O11,-2.963749749901962
mp-779209,Li4Nb3Fe3(TeO8)2,-2.225447307738094
mp-611219,Hg,0.228486112499993
mp-20492,ScSiRh,-1.088126355
mp-723378,KAlH6(OF3)2,-2.337382004046875
mp-22811,InCuSe2,-0.555774405781249
mp-1156,GaSb,-0.22927192000000202
mp-18747,SrMoO3,-2.512841190999999
mp-683918,RbC2N3,-0.380113067499992
mp-13535,Tb2ZnNi2,-0.45647371066665904
mp-761633,Li3Mn(CoO3)2,-1.8049411506609192
mp-21046,U(GeIr)2,-0.37911201799999705
mp-6253,KLiBeF4,-3.353237281511904
mp-7123,KSb(PSe3)2,-0.6419720235598211
mp-2079,Rb2P3,-0.43127663878571404
mp-581875,Ta3Bi7O18,-2.334517158107143
mp-757560,Li3Sn2(PO3)7,-2.489689631590908
mp-5401,Sr2B2O5,-3.207617671759231
mp-1019742,HeSiO2,-2.428324435625
mp-679967,Nb3Se10Br3,-1.039957948339843
mp-28564,Rb4PbBr6,-1.843945469090908
mp-30718,K5Hg7,-0.282999471145837
mp-559959,Rb2CoF4,-2.6003213435714283
mp-982724,HoTmTl2,-0.40634773375000305
mp-41918,SrLaNbZnO6,-3.025107013499999
mp-24366,K2ZnH12(SO7)2,-1.628747323693547
mp-1018119,VCoSn,0.46505134166666506
mp-9264,NaTeAu,-0.6205229249999981
mp-14373,Y3B7W,-0.570428563560604
mp-17268,Lu2Cu(B2O5)2,-3.037570600588235
mp-505185,Na2H16O9,-1.3428025422318
mp-556046,SrGa2B2O7,-2.769148537777777
mp-15950,Li(SiNi)6,-0.447616165641025
mp-555692,Rb2CO3,-2.079191224583333
mp-645364,Sr(PN2)2,-1.106844574421769
mp-510264,KY(WO4)2,-2.663045768937499
mp-570179,TbAu2,-0.8575134788888891
mp-9575,LiBeSb,-0.308156596111111
mp-10453,Lu(SiRu)2,-0.8671716393333321
mp-5377,YTaO4,-3.707996333722221
mp-778408,HgBiO3,-1.092814734500002
mp-10046,V2AsC,-0.605247509374999
mp-707941,Na3H(SO4)2,-2.062214628063423
mp-690536,Sr4Fe4O11,-2.282519960789473
mp-569425,Pr23Mg4Ni7,-0.151835626274509
mp-995221,H2CSO4,-1.132175256874999
mp-2358,SmAl2,-0.576745099999998
mp-974315,RuI,0.677549499999999
mp-755317,Y2TeO6,-2.9844200373148153
mp-767414,K2HoPCO7,-2.78760956117857
mp-3076,LaSnPt,-1.150159867777792
mp-15736,Sr3AlO4F,-3.419933012777777
mp-556050,P4S(NF)6,-1.471643540430672
mp-31025,Sc5NCl8,-2.312348066428572
mp-554532,K2TeClF5,-2.626809354574074
mp-973540,LuAlB4,-0.5524430769444441
mp-23330,NaClO3,-1.082864028810345
mp-760419,Li2BiF5,-2.846042060416668
mp-15046,Sb2(PSe3)3,-0.182319531106504
mp-707645,Na2Ca3B5H2S2ClO18,-2.638875461245211
mp-16493,YAl2Co,-0.5264388225000001
mp-775227,Li4Fe5(CoO6)2,-1.7110853312318852
mp-849678,Li2Fe4OF8,-2.501749798611111
mp-772724,SnBO3,-2.273767179333333
mp-30523,Ta3As,-0.37453832331249903
mp-974358,Ir3Ru,-0.041019843750007
mp-19027,Na5CoSO2,-1.272089747155172
mp-4756,ZnSnSb2,-0.10368815624999701
mp-1545,Nb3Rh,-0.254731762499998
mp-755057,Rb2PrO3,-2.17897613361111
mp-20389,Na2CdPb,-0.13259495568965102
mp-977394,TbAlAg2,-0.327462222499996
mp-4752,Na5Al3F14,-3.5173196765909083
mp-25802,Li2Bi(PO4)2,-2.4199886589194133
mp-11859,La(SiAu)2,-0.6273807170000031
mp-1009819,SrO,-2.6602446575
mp-28782,Na3PS4,-1.119841152347598
mp-540577,KZr2(PO4)3,-3.18968664089881
mp-10124,Tb(Ni2B)6,-0.39507762745613906
mp-567920,Ti4P3,-1.218640279370747
mp-866139,TiBe2Ir,-0.5618180808333341
mp-757884,Li2Sn3(P2O7)2,-2.400449137836438
mp-3700,LiYF4,-4.055315924444444
mp-698622,Sr10Mn5Zn9(AsO)10,-1.2958856687421632
mp-556740,NaSiBO4,-2.910690842379585
mp-14892,Rb9Fe2Se7,-0.9441972156336801
mp-9693,K2SnSe3,-1.119194034421874
mp-7725,Na2UO4,-2.962014290394087
mp-559740,SiO2,-3.214232430833335
mp-697761,MnPO4,-2.311259368762316
mp-10739,TiPRu,-1.079705236547618
mp-1152,TiRh3,-0.6179574708333321
mp-19320,K2FeO4,-1.428852621357141
mp-1008673,TmCd2,0.16220904999999802
mp-757203,NaPH4SO8,-1.888849398901478
mp-556262,SiO2,-3.254014431875001
mp-626000,NaHO,-1.544601617543103
mp-37521,Nd2USe4,-1.849411865624997
mp-581488,SbTe7SXeCl(OF4)9,-2.080700096324405
mp-753690,Li4H3BrO3,-1.807251558371211
mp-17396,SrNi5As3,-0.54547824861111
mp-559897,OsO2F3,-1.8332988608333332
mp-557697,Hg2Sb2O7,-1.467053617727276
mp-962066,NaLiTe,-0.7993767837931031
mp-22775,Sr(Sb3Ru)4,-0.44211844705882203
mp-777002,Li4V5Cr3O16,-2.447822132976191
mp-7888,Sr2HoReO6,-3.01842336775
mp-631549,HfGeB2,1.231745602500002
mp-560029,Y3BrO4,-3.711852546875
mp-768372,SbBrO,-1.455118806388887
mp-28779,USbO5,-2.807220893571428
mp-779975,Hf2N2O,-2.527018435499999
mp-21826,UNi5Ge3,-0.363660864999999
mp-1001918,HfC,0.21617761999999902
mp-20836,Nd(NiAs)2,-0.8217577835000001
mp-9497,Pr2C(NO)2,-2.344858268333333
mp-775996,TiFe3Cu2(PO4)6,-2.311330954755291
mp-541312,Ge3(Te3As)2,-0.27922211454545404
mp-2027,HfCo,-0.434389815000002
mp-1950,SrS2,-1.593265490208332
mp-775975,La2Nb2N2O5,-2.8388618668181813
mp-998176,RbPbBr3,-1.573023442499999
mp-763976,V4O7F5,-2.519886328125
mp-30686,Zr2Ga3,-0.691234410999999
mp-782820,Li5Mn6(BO3)6,-2.474779454978654
mp-558501,KBi6IO9,-1.65276168307353
mp-757781,LiSi2(BiO3)3,-2.357909829222223
mp-9033,Np(SiOs)2,-0.7128942557500011
mp-757399,La12Cu6O25,-2.93571850011628
mp-10890,LiAl3,-0.09328981916666601
mp-21911,PRu2,-0.432611893492063
mp-758418,Tl16O15F17,-1.576508002569448
mp-996992,LiAgO2,-1.081705696249999
mp-3679,NiSbS,-0.5463531583333331
mp-7347,La(BRu)4,-0.47967044685184906
mp-705061,UAg2(WO5)2,-2.179834346388887
mp-998231,KGeCl3,-1.62745394445
mp-558191,Na2ZrSi2O7,-3.146840108563217
mp-11575,YTl,-0.462708765000002
mp-2392,Th2Se5,-1.7808861118303572
mp-10212,ScGe2,-0.571158746666666
mp-20025,Mn(GaS2)2,-0.9256231851046791
mp-556389,UTl2(TeO4)2,-2.077310297692308
mp-695514,NaSr2NdTi4O12,-3.4696914617773
mp-504502,Ta3P,-0.64077666624405
mp-708015,Na2CuH20C12(N2O3)6,-1.051149779350132
mp-774528,Li11Ti24O48,-3.257670747670683
mp-571213,PNCl2,-0.9675629105357131
mp-865838,LiSiRu2,-0.352916888333333
mp-568854,CsReBrCl3,-1.4594489203591952
mp-691106,MnSnO3,-2.061573715586206
mp-510691,Hf5Sn4,-0.43733000055555504
mp-1018072,KTiS2,-1.566950386395833
mp-556353,Rb2NaNiF6,-2.6067016406379313
mp-16055,KLi3Zr2(Si2O5)6,-3.257958072026041
mp-7931,SrP,-1.210426868988094
mp-11515,NbRh,-0.37796670250000003
mp-42508,Na4BeAlSi4ClO12,-2.9570179269790113
mp-865146,MgAsPt5,-0.472430996071429
mp-9544,Er2C3,-0.26800943399999905
mp-29989,Sm3(SiIr)2,-1.029550025
mp-29313,Ta4P4S29,-0.8323654068352611
mp-775742,Li2Fe3TeO8,-1.7929600605952372
mp-27033,Li2SnP2O7,-2.554917620912698
mp-862563,Sc2BeTc,-0.132397137499999
mp-28774,KSnF3,-2.789741767200002
mp-23194,LaI2,-1.6789853050000012
mp-25378,CuO2,-0.529777563333333
mp-13208,Mg2Pt,-0.6882326533333321
mp-20719,EuHg2,-0.542237623333335
mp-756146,Mg(AgO2)2,-1.058704919047618
mp-17023,UNi2,-0.24647877416665803
mp-13917,LiCaGe2,-0.513002810833333
mp-10228,NbSe2,-0.931772326041667
mp-14721,KSiSbO5,-2.53744202090625
mp-863,PuCo2,-0.09970723958333301
mp-764621,Li3Fe8(BO3)8,-2.2517040824031
mp-776062,Li2FePO4F,-2.37241996556217
mp-1001082,Si(CO)2,-0.45692113799999906
mp-560263,Pr4Se3(O5F3)2,-2.977718611247735
mp-767671,Li3VF6,-3.1403041865
mp-31464,Dy5Bi3,-0.8220994278125031
mp-15778,MgNiSb,-0.46046171499999805
mp-756228,SrLaCl5,-2.672361040357135
mp-21611,Na2InCuF7,-2.6011755009343362
mp-28255,LaHO,-2.510143050416665
mp-10759,GeSe,-0.39054057617187404
mp-4013,Nd(SiRu)2,-0.9460035935000001
mp-779276,LiCu5(PO4)2,-1.637978367351189
mp-781628,Li7Mn8(BO3)8,-2.48444482085351
mp-639512,SiO2,-3.257615022898549
mp-31459,TaCoSb,-0.17669200911111102
mp-560187,SrCuAs2O7,-1.968097412045454
mp-760485,Li2CuSiO4,-2.278512335833333
mp-973960,KScO3,-2.33650292545
mp-23375,PNCl2,-0.9641799751190481
mp-7911,KCuO,-1.217806291583332
mp-29174,SiCl2,-1.06551748875
mp-980749,VFeRu2,-0.106915669999999
mp-973976,LuBr,-1.195112173333333
mp-776215,Li2Ti3NbO8,-3.082769079226191
mp-8954,TaSe2,-0.912967788486113
mp-631335,MgTaZn,0.668751169222222
mp-6860,Na3AlP3NO9,-2.624547281945088
mp-774324,Li6MnFe5(BO3)6,-2.356841737025863
mp-753059,TiOF,-3.397526732777779
mp-20696,Fe3W3C,-0.023963560714284002
mp-10224,NaVS2,-1.261412239094827
mp-1927,Dy4Sb3,-1.0654146723809461
mp-650026,PrIn2Cl5,-1.749761343020832
mp-4972,LuInCu2,-0.366030491666666
mp-542172,YbMgGe,-0.654336846666666
mp-762270,Li2Cu2F5,-2.26660666537037
mp-504827,Ga10GePb3O20,-2.146252935588236
mp-999305,PrRh,-0.64049084583333
mp-696649,KH2I3O,-1.017849866392856
mp-29450,CuSe3I,-0.168803863406249
mp-569624,HfCr2,0.103054793333332
mp-866207,LuCdPd2,-0.7664375291666601
mp-20207,MnAsRh,-0.21433656625478903
mp-570630,Tb2In16Pt7,-0.6388243934769291
mp-766047,K5Li3Ti8(AsO5)8,-2.552959109420573
mp-8577,Sc3GaC,-0.770501871
mp-30491,MgCd3,-0.034410316249998005
mp-1001843,HoP,-1.304262996488095
mp-12076,Tm(FeB)2,-0.45197801166667
mp-675569,KPF6,-3.074427400236607
mp-773200,LiVB2O5,-2.6604090076851863
mp-730460,Na5H3(CO3)4,-1.906994970026939
mp-680460,Rb2Cd2(SO4)3,-1.4597970718421052
mp-29731,HoClO,-3.508023086666663
mp-776125,Ti3Cu2Sn(PO4)6,-2.679191422579364
mp-783906,Mn2O3F,-2.039230296810345
mp-24171,SrPH3O4,-2.178045197321428
mp-685608,K2UF6,-3.620913971611108
mp-973058,LiLu2Al,-0.232217209999998
mp-582759,Ti6Ni16Ge7,-0.49148484465517106
mp-568692,In4Br7,-1.098389039696969
mp-1018826,NdGeAu,-0.830777172499998
mp-775258,Li4MnFe3(BO3)4,-2.372890818872125
mp-973101,LaHoRu2,-0.202778059999997
mp-973524,HoVB4,-0.782405860416666
mp-976064,Ho6CoTe2,-0.736491792592586
mp-976384,HoB4W,-0.598663788611117
mp-672176,K3Sc(MoO4)3,-2.404960924434211
mp-27536,UBrO2,-3.16903279625
mp-1002069,NaLiICl,-1.699845084928159
mp-3882,Sm(SiRh)2,-1.075789157
mp-18658,RbLaSiS4,-1.770347615357142
mp-776651,Mn3NiO4,-1.741881976724138
mp-13305,SmSnAu,-0.855774013333331
mp-961651,ZrFeSe,-0.6915341807812501
mp-777901,Li2VF5,-3.159265121145833
mp-559732,K2Nd(PO3)5,-2.858089534574534
mp-769725,Li4Ti3Cr3(CoO8)2,-2.449602147261904
mp-254,NdF3,-4.452365858958333
mp-571156,Mg(BH4)2,-0.32547560530303005
mp-11560,TiSiRu,-0.9180728555555561
mp-768450,Tm3Sb5O12,-2.681940301249999
mp-768966,Li5BO4,-2.315073449083333
mp-9144,LiAsF6,-2.559708187395833
mp-774950,Li2V3CoO8,-2.280208073690476
mp-981336,Zn3C,1.045974108124999
mp-23975,NiH12C2(SN3)2,-0.34553513521739104
mp-768988,Li4Bi2O5,-1.829863366439394
mp-540905,YAlGeO5,-3.168546244374999
mp-557189,LiPO3,-2.700216261095238
mp-10259,Zr(NiP)2,-0.839593881857142
mp-683974,Pr2(SeO3)3,-2.287634213716518
mp-850228,Li6Mn5Fe(BO3)6,-2.480755419851531
mp-556392,ZnS,-0.961798177477677
mp-13923,SnPS3,-0.40723959178273605
mp-675634,KBi2F7,-2.787156373225001
mp-551470,Tl2O,-0.814049282222227
mp-697146,Zn(HO)2,-1.483976192
mp-556865,NaBe2BO3F2,-3.117336764782886
mp-999068,Ti2AlV,-0.12454579145833401
mp-419,YbB6,-0.38151920571428505
mp-1052,NaAu2,-0.40535113999999806
mp-557035,K3SO4F,-2.414775273805555
mp-756224,TbGdO3,-3.844252297333332
mp-971920,TmMg3,-0.038277518750001
mp-774316,Mn6OF11,-2.8315292323659
mp-976326,NaInAg2,-0.08625744
mp-15237,Tb4C5,-0.478776262777778
mp-28324,Sr3(InP2)2,-0.804655888544974
mp-13871,P2Pt5,-0.44480274013605803
mp-18884,Na4CrO4,-1.899031763390803
mp-780878,LiMn(PO3)3,-2.58030475751378
mp-784,KZn13,-0.09541117919642901
mp-11578,VZn3,-0.07385269875
mp-755392,LiSnPO4,-2.3967881614965982
mp-13412,Y3Fe29,0.0010613556250010001
mp-24431,Si2H2O3,-2.124766877500001
mp-758089,Li2Ti3O6,-3.114150836969696
mp-565354,LaP5Cl18O17,-1.15611198239547
mp-779698,ZnTe2O5,-1.559997669791667
mp-30233,Na3As7,-0.357265993125
mp-1020011,Li14P2(N2O)3,-1.314420231638095
mp-673833,Li7VAs4,-0.791133263472222
mp-1135,NbPd3,-0.41910910249999805
mp-10699,LuRh3C,-0.551577750333336
mp-697974,SmP3H5NO10,-2.282181278258927
mp-561277,K2PbO3,-1.588238867416664
mp-863657,PmCl2,-2.184052750833333
mp-21398,HoIn5Co,-0.21224780976190202