material_id,formula,formation_energy
mp-13036,MoN,-0.45678565250000003
mp-19410,ZnCr2O4,-2.2772387178571423
mp-1001017,Zn(InSe2)2,-0.801941784672618
mp-774239,Li(CoO2)2,-1.371843757619047
mp-850980,Li2Mn3(BO3)3,-2.449460730468222
mp-28353,NaTe,-0.862433247291666
mp-981378,Sr3Yb,0.280643488749998
mp-977547,MgZnRh2,-0.42482178875000004
mp-978554,SmRe3,0.43896639062499704
mp-1019805,KB(S2O7)2,-1.932608527695832
mp-770873,Ho2WO6,-3.2789128530555542
mp-13841,IrF4,-1.507181853999998
mp-20255,TiCuSi,-0.564432879722223
mp-752415,NbO2F,-3.10606773875
mp-699482,Na2H20CO13,-1.397380687437739
mp-782669,Mn4O7F,-1.884818556393677
mp-17777,Sr5As3O12F,-2.850925213928571
mp-556906,Na3LiBe2F8,-3.281460825176519
mp-27852,Hg3(TeCl)2,-0.48409618964285905
mp-774416,Ti3Cr(PO4)6,-2.744947589642857
mp-571149,Tb2Fe17,-0.0027602596491240004
mp-10116,UB2Ir3,-0.51198325972222
mp-29619,Sr2Bi,-0.9151627383333311
mp-975786,Li2TmTl,-0.261420439046297
mp-770470,Li5Cu5(SnO6)2,-1.5799750686111111
mp-29492,S2I2O11,-1.232312779499999
mp-559452,Na5Li(PO4)2,-2.558976996219725
mp-540885,Na3PH16(SO2)4,-1.2267235002744
mp-764535,Li3Fe8(BO3)8,-2.2512020644961233
mp-28857,Pb(IO3)2,-1.051317116666668
mp-558340,Nd5As2ClO10,-3.22806242625
mp-1009696,RhC,0.560659146249999
mp-2266,YbAg,-0.36856195500000005
mp-540995,Rb5Nb3OF18,-3.367006931018519
mp-680158,K2Ti(GeO3)3,-2.377613964855555
mp-556246,La3Si2S8Cl,-1.84137820142857
mp-6065,Sr2GaSbO6,-2.61723140975
mp-675978,K2Bi3F11,-2.76328955496875
mp-571474,Sm4Sn3,-0.744268314285718
mp-752525,LiAgF2,-2.063166795416668
mp-761337,SrCrO3,-2.586664808
mp-570430,TaCo2,-0.19337846661111002
mp-761401,LiCrPO4,-2.4906910568537413
mp-18365,RbCuSe4,-0.7226372223958291
mp-556500,NClOF4,-0.928872943571428
mp-21575,Pr3InSe6,-1.836635497187498
mp-755020,SrCa2I6,-1.829406072222222
mp-1373,Nb3Ge,-0.266318827499999
mp-675678,Nd4Ag2Se7,-1.635485886626576
mp-977409,NbTc2Ge,-0.25930779875000104
mp-21478,U(CuP)2,-0.7276730941904751
mp-41734,Na8Al6Si6SO28,-3.019507004806913
mp-777053,Li4Mn3Fe2Sn3O16,-2.012399996504516
mp-972924,La(Mg4Al3)4,-0.051746367068965
mp-5807,Mn(SbS2)2,-0.49606403653324904
mp-558607,K3BSb4O13,-2.119083428138889
mp-764508,LiFe2(BO3)2,-2.265856432878787
mp-720570,Na2PH11O8,-1.539804417779612
mp-777580,V5O12,-2.252112980588236
mp-754358,ZnSeO4,-1.354736871223957
mp-6761,NaTi2(PO4)3,-3.020120663165252
mp-555598,KGd(PO3)4,-2.90718741060119
mp-684066,Li2Ti(PO3)5,-2.706944250574534
mp-972062,YbTmHg2,-0.570860657499999
mp-12520,SrNi2Ge,-0.41832857375000104
mp-19304,K2MnSO4F3,-2.51137541658464
mp-18633,K8SnSb4,-0.485688340230766
mp-680167,LiMo6Cl13,-1.161309743958334
mp-10266,ZnFe3C,0.012593363000000002
mp-1728,LuRh2,-0.830249500555552
mp-772628,Li3V(BO3)2,-2.629550492777778
mp-644302,NaHSeO4,-1.453599959639008
mp-861850,Li3CuNi3O8,-1.320777778666666
mp-675563,LaZr9O20,-3.670053144833334
mp-12684,LaAl,-0.470004778749999
mp-757595,H3SNO3,-1.116156732187499
mp-7176,RbLaSe2,-2.041494886796875
mp-36088,La5SmS8,-2.420765690714286
mp-770612,Li4CrH8SO7,-1.606123862182538
mp-19879,PPd3,-0.47868793553571404
mp-998758,TlHgF3,-1.700206235000001
mp-14636,Rb2NbAgS4,-1.263800423333332
mp-760382,ThUO4,-4.010769561666664
mp-11541,ZrOs,-0.6671038675000031
mp-650024,RbLiBi2(MoO4)4,-2.00898332982639
mp-530695,GdZr3F15,-4.100263805131579
mp-559093,Tl2BiP2S7,-0.671671080079365
mp-8289,SnF3,-2.533785512499999
mp-975530,RbAl,0.658536436249999
mp-865648,Yb2CdPb,-0.38951053750000103
mp-2348,Zr2Au,-0.468447070000001
mp-779318,LiCr2P3O13,-2.270608033276942
mp-777356,Li2Bi2(SO4)3,-1.891518465745614
mp-756389,Lu2TeO6,-3.020721381111111
mp-976679,HoSb3,-0.527384766874995
mp-769482,Na3Mn2P2(CO7)2,-2.239045024099378
mp-13200,LuCuSn,-0.6299424488888881
mp-30373,RbAu,-0.27381589375000004
mp-763099,Li2VO2F,-2.610619563611111
mp-567997,Sm3(CoGe2)2,-0.693794579444444
mp-553975,K3Na2InO4,-1.625013810867528
mp-10328,LaCrS3,-1.7604868705
mp-8872,RbNa2BO3,-2.245913919203612
mp-768453,Lu2(SO4)3,-2.682120325049016
mp-976313,K3V(SO5)2,-2.235891756046875
mp-12012,KPrGeSe4,-1.407838550470237
mp-777529,Li2VF6,-3.1136341014814812
mp-850,ScNi2,-0.520921808333332
mp-8864,Li(Co3P2)2,-0.6325090556277051
mp-766955,K6Na2MnH24(WO6)6,-1.770014516589196
mp-560314,In2H10S3O17,-1.630369940729166
mp-698666,Li2MoO3,-2.104665313819444
mp-775831,TiMn2O6,-2.286120496577267
mp-554119,KSnAsS5,-0.8015104105937491
mp-753532,Nb2O3F2,-3.031614809285713
mp-771092,Li6Mn3Cr(PO4)6,-2.536803308541255
mp-9468,KCa9Mg(PO4)7,-3.277895412277173
mp-863377,Li2SnP2O7,-2.486131639246031
mp-715517,VO2,-2.424621426458335
mp-22167,Zr6Ga2Co,-0.40723799388889004
mp-18779,Na2CrO4,-1.983148568965516
mp-561407,RbGaS2,-1.295896663437499
mp-770704,Li2AlFeO4,-2.488014498645833
mp-542374,KSn,-0.280997838624998
mp-542737,TiZn2O4,-2.496834717619047
mp-27533,P2Pd15,-0.25358000642856804
mp-975512,InSb3,0.030218802500005002
mp-862924,PmInPd2,-0.798036106874999
mp-782648,LiMn(PO3)4,-2.502945719435322
mp-19393,NdMn2O5,-2.609972436357758
mp-556078,MgAs2(XeF8)2,-2.181501331190476
mp-568851,LuNiGe,-0.720867246805555
mp-7507,Sr3Li2,0.021185714333331003
mp-37449,Nd5AgS8,-2.113159675446425
mp-849482,Mn12O7F17,-2.557234531532568
mp-504662,SbClO,-1.605962536666666
mp-758863,Sn2N2O,-0.577713966249999
mp-31258,Pr2MoC2,-0.25578034316666504
mp-776752,Li4Mn2Fe3Sb(PO4)6,-2.409767991426312
mp-850556,La3Nb8O24,-3.274476783571429
mp-768409,TbTiO3,-3.628116425500001
mp-9439,YbCuSb,-0.669252818333338
mp-6533,NaLu(Pd3O4)2,-1.446170874252872
mp-22850,RuCl3,-1.00512590625
mp-569249,Ta3Au,-0.054570624250004
mp-722310,KErHSe2O9,-1.771039638799107
mp-865252,TmSnRh2,-0.8356537712500011
mp-28626,LaSO,-3.05161248
mp-861980,PaGaTc2,-0.279342979999995
mp-559934,LiZnPO4,-2.546068404710883
mp-551905,OsO4,-1.527730192
mp-769153,Li2SbSO4F3,-2.37296680560606
mp-646586,Sm6InCo2,-0.197078431296296
mp-624769,P2WO8,-2.40897969538961
mp-558309,K4SnSb2F14,-2.9374359997142863
mp-11584,Lu8Te,-0.32663798666666505
mp-7652,Na5TlO4,-1.4807014082729881
mp-772668,Li3MnSiCO7,-2.430324807533157
mp-15277,La5Cu19P12,-0.537127037242063
mp-762089,Na4SnH32(SeO4)4,-1.228169253156004
mp-555236,Tm2Te5O13,-2.205418816916668
mp-557470,K2Sb2S(O2F3)2,-2.5256055579666663
mp-770487,Li3V3(BO5)2,-2.566520434074074
mp-755794,Rb3LuO3,-2.255936357738094
mp-864674,Ho2AlZn,-0.373683097499997
mp-20520,U3Te4,-1.070986164285719
mp-777461,Li4V3Cr2Sn3O16,-2.308877662797619
mp-625145,H7ClO3,-1.176096397613635
mp-558294,Li3TaO4,-2.849447464458333
mp-8429,K4IrO4,-1.526256729888885
mp-865612,LiCd3,-0.19269878416666403
mp-18782,LiFeO2,-1.924714834583333
mp-756135,Tb3NbO7,-3.717161967272726
mp-12047,K3Na(RuO4)2,-1.70130232379495
mp-17265,Sr2CuGe2O7,-2.391299852083332
mp-9741,Na3Cd2IrO6,-1.53080485367816
mp-560786,Nd10S19,-2.08380156822198
mp-735514,MnH18C4N8(ClO)4,-0.8313541305238731
mp-32939,Fe7O8,-1.458767783999999
mp-757,Li3As,-0.841232569375
mp-780313,LiVP3(H7O8)2,-1.801291367421769
mp-4678,Zr2AlN,-1.257320759270836
mp-696941,K2H2RuO5,-1.597148574199999
mp-607848,La(In2Ni)3,-0.28553304499999904
mp-698358,NiH10C4(SN4)2,-0.32051513470000004
mp-216,Sc2O3,-3.968732640749999
mp-19120,MgCrO4,-2.185497340833333
mp-504948,LiScGeO4,-2.876009241904761
mp-557266,HgO2,-0.064082885000001
mp-18451,KEr3F10,-4.303242336589285
mp-569832,Nd(Al4Co)2,-0.457473580227272
mp-545847,LuBi2BrO4,-2.428291011458334
mp-29095,H4SO5,-1.48087888925
mp-1564,NaTl,-0.166129025
mp-12046,Rb3Na(RuO4)2,-1.7055348624199511
mp-776041,V2O5,-2.254847387142857
mp-292,V3As,-0.5148442456249991
mp-17660,SrPrCuSe3,-1.766424609366319
mp-17756,RbAg2SbS4,-0.63330489927083
mp-616204,Ga3Cl7,-1.149888363249999
mp-675621,Li5SnP3,-0.528484927843914
mp-18055,La2Ge5Rh3,-0.845104445999997
mp-20410,Ho(BC)2,-0.43958457966666303
mp-705336,Li2Co3(P2O7)2,-2.348797691097309
mp-5033,Tl2SiF6,-2.836305280555557
mp-755413,Na2O,-1.346765707586206
mp-809,ThCo5,-0.045426178333334004
mp-974395,Pt3Rh,-0.016668392500001
mp-753495,Sb3O7F,-1.7980848272727261
mp-570965,Pr6CoBr10,-1.89005653588235
mp-735519,KHoCoSi2O7,-2.928976559354166
mp-721255,Li10Si(PO6)2,-2.633106668904762
mp-21724,ZnSiPbO4,-2.381144441607142
mp-19880,FeTe2,-0.461995076111112
mp-771515,Li6V3W3O16,-2.319179365714286
mp-775297,FeCu3(PO4)4,-1.974806886607143
mp-766923,LiVSiO4,-2.834237834761904
mp-20801,LiIn2Pd,-0.519555554166665
mp-567330,TiCl3,-1.779151604166648
mp-760980,FeCu5S4,-0.335958895999999
mp-762274,LiCu4(PO4)3,-1.9033091451130941
mp-676813,RbAg4I5,-0.668785334666665
mp-972021,SrInO3,-2.1154600563333332
mp-15317,Rb2NaHoF6,-3.59337799813793
mp-21906,U20Si16C3,-0.22334986551281602
mp-2713,ErIr,-0.921583655000002
mp-23764,Mg3Si2H4O9,-2.585745625277778
mp-996161,Nb3AlC2,-0.5207483058333651
mp-867325,Pu2HgSb,-0.217865397499995
mp-23630,NbBi4ClO8,-2.046183301250014
mp-2656,Nd3S4,-2.315950556249999
mp-645,TbP,-1.857639228988098
mp-15349,Li2GeO3,-2.322120966111109
mp-765341,LiCuF4,-2.11983325452778
mp-764733,Li5Ni5O9F,-1.599274961833332
mp-8216,LaBO3,-3.521145549833336
mp-567915,La3MnBi5,-0.784278145881223
mp-754044,Ho2TiO5,-3.795378381666665
mp-560545,Na2Ca(AsO3)4,-2.029835716987296
mp-557296,Sr2MnSbO6,-2.567225706793103
mp-1020621,RbBe2B3O7,-2.890801567499999
mp-625402,Sm(HO)3,-2.223578186964287
mp-866165,YMgRh2,-0.668539486249998
mp-1250,Lu2In,-0.440979852777777
mp-626241,Sr(H8O5)2,-1.354419020555555
mp-12463,Ni(TePd)2,-0.298515630999997
mp-4699,NaTaO3,-3.059662738242528
mp-8121,SmCuSi,-0.7035757583333341
mp-14037,NaTl2RhF6,-2.211141618804599
mp-979137,SrGaSiH,-0.436216257187501
mp-779096,Tm3TaO7,-3.878578741803032
mp-974906,MnSn3,0.279429226767241
mp-561533,SbOF,-2.200502247916667
mp-754322,Sr2CuO4,-2.185755024285735
mp-766984,Li2Fe(Si2O5)3,-2.854503483194444
mp-770744,Li4Nb2Fe3Sn3O16,-2.269829564940476
mp-8702,LiGaGeO4,-2.270792243214286
mp-556074,K2Cu3(SeO3)4,-1.329588991613095
mp-8133,LaPO4,-3.503194310496016
mp-9406,Li2La2Ti3O10,-3.480496879215687
mp-696138,Li10Ge(PS6)2,-1.199798971304761
mp-567204,Ho8Mg12Zn61,-0.16651425814814702
mp-510002,K2Sn(HO)6,-1.6173990218
mp-15998,RbV(CuS2)2,-1.084312144687499
mp-22002,Sm3Co6Sn5,-0.32860895357142805
mp-862966,PmTlAg2,-0.29126743187499904
mp-775007,SbP6(WO8)3,-2.427338771995798
mp-735483,Na3LiMo2(H6O7)2,-1.665262489920977
mp-754517,SrCa2I6,-1.885161441111111
mp-15813,Mn3W3C,-0.029914947278322
mp-3871,Ti2SnC,-0.7897175870833321
mp-773178,Na2CrCSO7,-2.058277383354884
mp-1019256,SmTlZn,-0.33323574777777804
mp-780230,Hf2N2O,-2.5290377355
mp-27796,Li4H5Rh,-0.428537592541665
mp-972827,SiBiO3,-1.820326181
mp-20790,InPS4,-0.48460511487103003
mp-18350,V3P,-0.7141346001190471
mp-19395,MnO2,-1.80582994014368
mp-767723,LiV2F9,-3.014897074027779
mp-12295,Sr3La2(BO3)4,-3.373061714007936
mp-572763,TaP4(SCl)5,-1.010330425060316
mp-17924,ZnP2PbO7,-2.434977140616882
mp-504941,Sc2V3Si4,-0.768678585833334
mp-560152,SiO2,-3.169205561041666
mp-777896,Li2V3NiO8,-2.289423585476191
mp-753818,Li3(FeS2)2,-0.9757611061111101
mp-1756,ThB6,-0.526870689285715
mp-25372,LiCuO2,-1.382593593333333
mp-27311,LaCO,-2.151695355000002
mp-2920,LaAlO3,-3.722193366
mp-33797,Sr(RuO3)2,-1.7472979455555562
mp-22023,Pb3SO6,-1.756175495249996
mp-10469,NbSiPt,-0.855165805833337
mp-581991,Nb2P,0.092289315489418
mp-553956,P2Pb3O8,-2.300271062252746
mp-973994,NpPa3,0.29892810031250805
mp-8111,LaOF,-4.256708431666667
mp-4893,Hf2SnC,-0.857691298750001
mp-782631,Li2Cr(FeO3)2,-1.917084578181819
mp-34489,LiInSe2,-0.9420573599479171
mp-6102,NdNi2B2C,-0.45213508847222006
mp-560366,XeF6,-0.7935726327678571
mp-764057,VO2F,-2.412409540833334
mp-677454,P6(Pb2O5)5,-2.2878414951916373
mp-202,TaTe4,-0.5969074789666651
mp-12072,UAu2,-0.48725831833332706
mp-1019259,SrSnHg,-0.548813182500001
mp-865662,Yb2AgPb,-0.419141123749994
mp-26855,Li2Sn(PO3)4,-2.536968277380952
mp-772155,Li2BiAsCO7,-1.948494665347221
mp-770745,Li2Cr2O7,-1.8241247821969702
mp-619067,U3Cu2S7,-1.420801893541656
mp-756510,K4TiO4,-2.377695598037035
mp-18279,Zr2CuGe4,-0.48365943214285606
mp-540962,KLa(PO3)4,-2.930340037545635
mp-707307,Nd2P3(HO2)5,-2.431623399258929
mp-554472,PNClF,-1.503733403660715
mp-5784,Na2GeO3,-2.132981442959769
mp-631487,LaBeOs2,0.6749265475
mp-30522,Nd5Ir3,-0.716647410312496
mp-13572,ScSiPt2,-1.139214575
mp-31096,Li3AlH6,-0.355517939749999
mp-15659,Sb2Pt3,-0.39766221300000104
mp-768991,Li4Bi2C4SO16,-1.9448106613271592
mp-9778,K2AgP,-0.43898535886904705
mp-865807,Ti2MoIr,-0.6356605766666661
mp-1866,KO2,-0.980193509083333
mp-695202,Mg4Al9Cu(SiO4)9,-3.238361179322034
mp-540586,Tl2SnO3,-1.497404127777778
mp-4690,K3TaO8,-1.7564790782569442
mp-673096,Li3Sn(PO3)6,-2.517481441887756
mp-27229,Sb6S2O15,-1.812846898478262
mp-6702,Na7In4P9O32,-2.581947146405914
mp-777679,LiFeF4,-2.761452307638889
mp-776860,Li4Fe3Co3(WO8)2,-1.875398349047618
mp-568083,LaNi2B2C,-0.44123762472222205
mp-8996,Sc3RuC4,-0.46676427687500005
mp-567763,Pr(C2N3)3,-0.048270930026042005
mp-1299,SiPt2,-0.7792132649999951
mp-2399,YHg,-0.585943523750003
mp-570404,Ho4CdCo,-0.23357492999999402
mp-973143,ScZn3,-0.29388966999999905
mp-996988,LiAgO2,-1.057934106249999
mp-2424,LaZn5,-0.340760943333333
mp-21424,TbNiGe,-0.7889508647222201
mp-774708,ZnH12C3S4(N3O2)2,-0.6624066674999991
mp-752512,Li6CuO4,-1.8315019859090902
mp-864975,Mg2PdPt,-0.7936226175000011
mp-505771,K2NaH5(CO4)2,-1.753240500951625
mp-851090,SrLaCl5,-2.64580245446428
mp-17816,Na5AsO5,-1.8721068078996872
mp-34296,Zn(FeO2)2,-1.692797643571428
mp-866096,HfZnCo2,-0.24672110124999902
mp-541557,Lu2Fe3Si5,-0.6552801813333341
mp-30925,La(NO2)3,-1.398661541000001
mp-571193,MnP4,-0.35499020280049204
mp-865218,YbTiO3,-3.140033187583336
mp-1019786,K3Zn(BO2)5,-2.648206880135965
mp-1019733,Eu(NO3)3,-1.321586514038462
mp-779913,Fe3OF5,-2.390052496666666
mp-600029,SiO2,-3.256047028611111
mp-999193,SmAu,-0.8350797550000001
mp-22292,EuCuSb,-0.772728946666669
mp-640712,Rb8In11,-0.132621815438595
mp-780303,Li4Fe3SbO8,-1.9496088977083341
mp-998918,TlFeSe2,-0.39858073700521
mp-560144,K2RuBr5NO,-1.28256529095
mp-697075,Ti3Zn3N,-0.7666176467857141
mp-981530,YbPrPd2,-0.8320596466666671
mp-381,SiRu,-0.646847645000001
mp-758886,LiCuPO4,-2.124043995068026
mp-13005,LaCrGe3,-0.487377385999997
mp-779287,La2HgO4,-3.009393516071427
mp-540626,NiH8(IO5)2,-1.130861045
mp-18864,Rb2WO4,-2.248733529999998
mp-2573,NpAl3,-0.30263384468749804
mp-568115,Zr5Si3,-0.8719251650000001
mp-7295,RbCr5S8,-1.090150038392844
mp-560806,Zn2In2S5,-0.7702387568005931
mp-28277,K2PrI5,-1.707505457333331
mp-684496,SbP2O7,-2.24397984242857
mp-971647,NaMnO2,-1.917410217327586
mp-23457,PBr2N,-0.67721951407738
mp-558958,H2O,-1.2676467697222211
mp-559833,Na2YC(OF)3,-3.050273570025862
mp-569582,La4MgCo,-0.10535970833333601
mp-754085,Li2BiS2,-1.025532081333333
mp-675230,NaLaS2,-2.12479554765625
mp-40668,NaCoP2HO7,-2.300544082451252
mp-867278,DyPaTc2,-0.16986982625000002
mp-743676,VH10S2(NO4)2,-1.064658054021738
mp-974386,Rh3F,0.125933554999996
mp-1008635,WC,0.5193360850000021
mp-21364,HoCuAs2,-0.92207961
mp-867801,La2AgSn,-0.538420629166666
mp-1019777,K2La2B2O7,-3.148412294641026
mp-755756,Y2TeO2,-3.275033299333331
mp-22600,Sc3P2,-1.397052117690475
mp-32028,Mn(PO3)4,-2.3892843418530862
mp-555069,Tb2SnS5,-1.731748506354167
mp-758945,Li5CuHO4,-1.731310787083333
mp-850930,Li3MnF5,-3.050901002686782
mp-19207,Sr2CoWO6,-2.603880691500001
mp-760136,Li4TiCu3(PO4)4,-2.385289850544217
mp-8424,Li8PrO6,-2.213111641888888
mp-722188,NaCa4Si8H16O28F,-2.483068081747918
mp-29726,LaSi2Rh3,-1.016716155833329
mp-1986,ZnO,-1.782830182499999
mp-560005,TlRe3(S2Cl)2,-1.029938029833332
mp-29630,Li7Ge2,-0.318843162037036
mp-559385,SrHo2O4,-3.7545352696428553
mp-867474,Li2EuSn,-0.48585430916666705
mp-628726,Sr(AlCl4)2,-2.263419876363636
mp-762694,Li3Ti2Fe3O10,-2.4310700825925933
mp-20450,YCrB4,-0.655015974583335
mp-796,Nb3Al,-0.218436486249999
mp-770811,Si2As2O7,-2.459652085
mp-23858,H8PtN2(ClO)2,-0.838403519666666
mp-1657,UAs2,-0.8711032616666661
mp-15391,Na4TeO5,-1.87339313071839
mp-766967,Li2Mn3(Si3O8)2,-2.87671320112814
mp-554882,DyCuTe2ClO6,-1.998295626136363
mp-2306,LaMg3,-0.10987347000000001
mp-30203,Sc6AgTe2,-0.692707156388888
mp-865828,YbPaRu2,-0.522111036249995
mp-767688,NaNdPCO7,-2.598985001229286
mp-777779,Li4Mn(TeO4)3,-1.833655412563218
mp-977384,ZnSiRh2,-0.6848659674999981
mp-755311,NaLuO2,-3.240658954511494
mp-12899,HoSi,-0.893756724999995
mp-865341,Tm2InOs,-0.40879887750000404
mp-781961,LiCrPH2O5,-2.113799596297619
mp-29320,Te3SeO8,-1.412162868945313
mp-23494,Ti(Bi3O5)4,-1.8112921922222212
mp-30725,YHg2,-0.474424555000003
mp-770879,Fe5Co(PO4)6,-2.230633351051587
mp-625175,H3ClO5,-0.8169210534722211
mp-28865,Os(SCl6)2,-0.309395096375
mp-18749,NiSO4,-1.711362256249999
mp-662815,Mn(GaS2)2,-0.8944596872475361
mp-7303,ErCd3,-0.23052314874999702
mp-1001012,Sc2ZnS4,-1.875742454999999
mp-770382,Li3V3(BO5)2,-2.563325121851852
mp-753708,TiOF,-3.422749602777779
mp-570254,ThBC,-0.587055869999995
mp-1019806,KMg6P7O24,-2.9457871322302642
mp-559961,Tl2SeO4,-1.233286400215776
mp-956096,HfFe2,-0.33308265749999605
mp-974662,Rb3Pr,0.5838578264583331
mp-1412,Ti3Sb,-0.432556269999999
mp-1448,NdGa,-0.693133176249997
mp-605821,Nd3SeBrN2,-1.8245722078348212
mp-989195,ScClO,-3.278720271666667
mp-3574,MnAlCu2,-0.13084941948275802
mp-5618,Mg2As2O7,-2.276241102727271
mp-29416,Pr5C2Br9,-1.8715798950520832
mp-557004,SiO2,-3.251989495555557
mp-861657,Li2PrAl,-0.221982791249999
mp-752953,ZrTi2O,-1.476547890416665
mp-9702,Sr3BPO3,-2.587786172976191
mp-504928,NaCu3Te2,-0.266854584166668
mp-720279,Na4H20RuS4(NO9)2,-1.367229883479944
mp-560824,La6B(NO2)3,-3.006195688697919
mp-2918,YCuO2,-2.712541574999999
mp-772403,NbVO4,-2.8223400595833343
mp-850747,LiFe2P2HO8,-2.248029544740645
mp-865132,Li4Ti3Fe3(SbO8)2,-2.4319691526190472
mp-863665,Pm2CuIr,-0.523522236249998
mp-7905,SiO2,-2.850307514999999
mp-776021,Li4Sb(TeO4)3,-1.818285607666666
mp-22502,Mn3IrN,-0.21834808375862003
mp-11737,Li4SiO4,-2.6748830125925913
mp-976762,NiAg3,0.1849671575
mp-770548,Na6Cr2P(CO4)4,-2.144686394066162
mp-9405,K3SeO4F,-2.045040245454861
mp-23648,Li4Al3Si3ClO12,-3.122293324927536
mp-754095,Li3Cu4F9,-2.151931585624998
mp-770847,La2Cd2O5,-2.671380542500001
mp-22958,KBrO3,-1.044634649449999
mp-757205,Y2Th5O13,-4.207758563249999
mp-23002,TiBrO,-2.538047887777776
mp-570972,K2Mn(NbCl3)6,-1.748129269719668
mp-977583,LiNpIr2,-0.399702506770836
mp-704227,Mn9(PO4)8,-2.426548707724942
mp-541474,Pt(OF3)2,-1.15365942611111
mp-5127,LiCuO,-1.432946590277778
mp-542622,P4O7,-2.130709919415583
mp-764063,Li2CoO2F,-2.216353936944444
mp-11977,LiSnAu,-0.423544417777778
mp-23609,Zn3B7ClO13,-2.565348350590278
mp-567846,Ta3P,-0.6405896324940481
mp-730,P2Pt,-0.789592848650793
mp-7938,KNbS2,-1.4087580168124991
mp-540138,MoPO5,-2.349470745663265
mp-762239,Mn(CO3)2,-1.685207291436782
mp-505292,Nd3(CuGe)4,-0.6583464247727251
mp-753677,Li3BiS3,-1.159218472499999
mp-23546,Na2UI6,-1.302314334750954
mp-974682,RbGaH2,-0.298481811874999
mp-19979,La(NiGe)2,-0.6910069750000021
mp-558411,Y2Zr2O7,-3.841946783636363
mp-865259,HoHg3,-0.391325011874997
mp-19170,PrNiO3,-2.405585991833332
mp-1023,Ho2Co17,-0.078507607631578
mp-557962,SrLiBS3,-1.5057733649999991
mp-1086,TaC,-0.659460603666666
mp-776110,SiSnO3,-2.5862830018333343
mp-23827,Sr7(H6Cl)2,-0.9898529445238081
mp-554191,Na2UO4,-3.022789054679803
mp-777443,Li2FeF6,-2.59457804962963
mp-764506,Li3Fe8(BO3)8,-2.241284844031007
mp-865000,HfScIr2,-0.994417118749998
mp-556553,SiO2,-3.187129669999999
mp-673673,NdO3,-2.033777950624999
mp-22893,PbI2,-0.920223401666663
mp-557143,Tl2Cu(CO3)2,-1.4833446901515162
mp-631562,SiBAu,0.901577752361106
mp-769001,Li6Sn2B4SO16,-2.446102053764368
mp-694629,V3(PO4)4,-2.4965589461697713
mp-971950,Zn3Sn,0.12423259374999901
mp-314,Th3Ge2,-0.754729276999995
mp-557826,Li3U7(PO7)5,-3.223266602664285
mp-755796,Li2FeS2,-0.946367579333333
mp-39542,KRb2ZrOF5,-3.358261073225
mp-616577,Sr3BCNCl2,-1.517474101458333
mp-759657,Li3CuF6,-2.5508491636666593
mp-1013554,Sr3PN,-0.95271940134524
mp-779820,Li3Fe4(Si3O10)2,-2.558796747272727
mp-557111,Sr3CaRu2O9,-2.481131521500001
mp-865804,TaZnRh2,-0.5910538055833351
mp-1091,SmAu6,-0.42189018714285903
mp-540544,U8CrS17,-1.705546992596151
mp-18303,Nd3CuSnSe7,-1.5831563211588322
mp-676666,Rb2CeO3,-2.707191813333332
mp-631481,NaSrNb2,1.575021724195401
mp-9132,Ta3SnS6,-1.316093814699995