material_id,formula,formation_energy
mp-570823,Ba(BSe3)2,-0.8903812985995351
mp-691043,Ba10Pr5Nb(Sn2O15)2,-2.914328864366666
mp-2531,Er2Co17,-0.08413210526315801
mp-862631,Ba2SbAu,-0.9366391824999991
mp-606102,Ce3In3Ru2,-0.46157563749999503
mp-2628,DyCo2,-0.18322078388888702
mp-556094,AgBiSCl2,-0.9455932878333341
mp-867348,DyMgSn,-0.5543333755555541
mp-510453,Ag3RuO4,-0.7097687249999981
mp-30375,ErInAu,-0.8569172288888901
mp-530984,Al22PbO34,-3.349244203684211
mp-561886,CsNd(PO3)4,-2.91579516198481
mp-20685,Cr3Ge,0.09220284625000001
mp-13463,FeNiPt2,-0.20882483500000001
mp-16495,AlCrFe2,-0.164215934999999
mp-1018097,BaCaO2,-2.865344739999999
mp-23980,Cs3H(SeO4)2,-1.6609773817787872
mp-559484,Ba11(OsO6)4,-2.523989859615384
mp-554371,CaSiBHO5,-2.9325587756018523
mp-669357,CdI2,-0.826871812787879
mp-7592,AgF,-1.122615552499999
mp-1009504,EuZnGe,-0.5423162166666671
mp-21560,CuAs2PbO7,-1.56954440681818
mp-1008653,AgC,2.236464982916667
mp-12262,CsBeF3,-3.404085375431035
mp-16934,BaLaAlO4,-3.516998215357143
mp-567702,CsReCl4,-1.284539347361108
mp-3093,ErB2Ru3,-0.481723831388886
mp-559159,Cu4As2O9,-1.239467006
mp-8881,AlAs,-0.619637686249999
mp-3286,Ce(AlZn)2,-0.38204573599999303
mp-19502,BaTi18Mn3O38,-3.332654179396551
mp-7249,Ba3Nb2ZnO9,-3.071309408333333
mp-510654,Cu2PHO5,-1.657777892599206
mp-30434,BaTl2,-0.385091675555566
mp-37695,Ag7NO11,-0.5118082090350791
mp-766303,Ba2Ca7I18,-1.856966079629629
mp-558269,Ce2SiS5,-1.774845811757809
mp-8347,BaMnS2,-1.585543703232757
mp-1019714,CsCa10(PO4)7,-3.283418606133807
mp-985471,Ce2ZnHg,-0.203573703125
mp-4973,CeSF,-3.234072194166664
mp-632759,CuH4(OF)2,-1.4640459794444451
mp-15650,AsRu,-0.30457378375000105
mp-916,DyPt2,-1.216130404999991
mp-771165,Dy2TiO5,-3.837612175520833
mp-567172,Cs2NaYbCl6,-2.400583374999999
mp-626308,Ca(H8O5)2,-1.344038530370371
mp-30696,Cd5Cu2,0.024077038571428
mp-23356,Bi4B2O9,-2.08657595738889
mp-36465,Al2FeO4,-2.839391702857143
mp-540839,CsPbI3,-1.263226744931036
mp-1014296,C3N,0.31068654312499905
mp-541629,BaGaF5,-3.52080012857143
mp-27830,Cs2SeCl6,-1.2756812115624991
mp-30151,CuAuSe4,-0.393256703229165
mp-722271,H14RuS2(N2O3)2,-0.90381652212963
mp-569689,Eu2PI,-1.516143607410716
mp-757280,Ba2As6O11,-2.062824206578948
mp-973875,Ga3Ge,0.08742118812500001
mp-767240,CsPH4(NO)2,-1.264138900679803
mp-510452,CeHSO5,-2.483031136718749
mp-4051,AlPO4,-3.119440272440476
mp-549970,Ba2ZnReO6,-2.533858086249999
mp-755881,Ba2Ti6N2O11,-3.1927373040476192
mp-676002,Ba2PrF7,-4.215402317666666
mp-10598,CuSn,0.009223705
mp-755911,Hf2N2O,-2.425076384
mp-16569,Al17(Re2Si)2,-0.220832062898551
mp-18219,Dy2SiSeO4,-3.405426772897135
mp-505789,Ce2Ni7P4,-0.8592874352747241
mp-6255,Ca3Sc2(SiO4)3,-3.59683571325
mp-504630,InTeCl,-0.8248074937500001
mp-21660,HfGa2Co,-0.49562482175000105
mp-2923,Ca2Os2O7,-2.237136337727267
mp-676555,Ag8GeTe6,-0.00626296416666
mp-26304,Cu9(PO4)8,-1.8679906142274052
mp-542208,Ba3NaOs2O9,-2.3333826787586203
mp-542220,Cs3As,-0.21569561578304902
mp-755650,Gd3YO6,-3.820042391000001
mp-676248,GaCuTe2,-0.14236440124999902
mp-567540,Ga,0.081974896999999
mp-1042,HfSi,-0.8552623112500011
mp-24436,Ca5As4(HO2)10,-2.104900654935897
mp-722278,BaSiP4(HO7)2,-2.675550258230518
mp-2691,CdSe,-0.8370525111718741
mp-1019537,BaAlSi4N5O3,-2.068949156071428
mp-758337,Ca2P6O17,-2.855925476314286
mp-11453,HfPd3,-0.8964716099999991
mp-706670,AlCuH28S2ClO22,-1.447609973636364
mp-23326,Ca4Cl6O,-2.896422515454545
mp-865164,HfCdCu2,-0.089468064999999
mp-9856,Cs2ZrSe3,-1.6363833120312492
mp-775287,Fe10OF19,-2.5238237110000012
mp-29194,Cs2Au2Se3,-0.7905192645982141
mp-2226,DyPd,-0.9281805374999971
mp-7594,CsLiF2,-3.018766748541665
mp-29550,Ba2EuCl7,-2.70182724825
mp-554206,Cs2Al2As2O7,-2.500848698408488
mp-545659,Ba2DyBiO6,-2.825176806166666
mp-27292,Hg3As2F12,-1.961926048382353
mp-541852,Co21(ReB3)2,-0.104551050000001
mp-570423,Ba6Pr3I19,-1.9066669416071442
mp-540881,Cs2AgI3,-1.320910873079503
mp-616135,Cs5SiP3,-0.43578269851122103
mp-6496,Ba2Na(CuO2)3,-1.788666265531609
mp-864999,Dy2IrRh,-0.8725378233333301
mp-27669,HS3N,-0.025773074999999004
mp-29066,Al3Fe2Si3,-0.32133712531249903
mp-776461,BaNb3NO7,-2.842961962499998
mp-640118,CeZn3,-0.291899036249999
mp-571258,Er6I7,-1.085635744230768
mp-391,HoAl2,-0.581286311666666
mp-42054,BaLaTaZnO6,-3.129271671233333
mp-21116,CeCoGe3,-0.570767636999998
mp-850364,Fe4O3F5,-2.1405649125
mp-768166,Dy(ClO4)3,-0.9861600069791701
mp-27342,Ge5F12,-2.287584770882353
mp-542038,Er3Si3O10F,-3.729584180147058
mp-753903,Bi2B2O7,-2.01119179030303
mp-1179,DyNi5,-0.327578571944444
mp-755610,Ba6HfO8,-3.092502083333333
mp-22935,CsBrF,-1.9530576498850571
mp-38843,CaTa2O6,-3.382113790518517
mp-626112,H7NO6,-1.114267708660714
mp-1910,CeNi5,-0.34413840833333004
mp-542054,Hg9(PO4)4,-1.6276102612438441
mp-781080,Fe4O5F3,-1.710700790416666
mp-20708,In2Ni3S2,-0.548374455476188
mp-631532,BaBe2Te,0.416782308333333
mp-768908,Ho2TeO2,-3.249896117333331
mp-8039,AlF3,-3.85641041
mp-1007693,HfOs3,-0.16385790749998802
mp-756897,DyTe3O8,-2.000623767638888
mp-996942,Ba6In2NF,-0.9321422353333331
mp-19996,Ba2GdNbO6,-3.418899239
mp-974603,HgF2,-1.513354450833333
mp-557049,CdSbS2Cl,-0.679851513374998
mp-1008929,FeN,0.078050967499999
mp-6244,HoCuPbSe3,-1.23645850658854
mp-5080,Ba5Mg18Si13,-0.24260706999997603
mp-196,Al5Co2,-0.42809385035714104
mp-559375,CsKTeH6SO10,-1.656379870803591
mp-998398,InSnBr3,-1.047631763333333
mp-6094,Ca2MgSi2O7,-3.374635929583332
mp-13974,Ho2SeO2,-3.494920356468746
mp-770416,Dy2WO6,-3.309871926342591
mp-2721,Ce2O3,-3.688947110999999
mp-9473,Ba(NiP)2,-0.7742038698571421
mp-6287,Cu6Hg3(AsS3)4,-0.4192335259
mp-30426,BaCdBi2,-0.510969750000001
mp-1994,HfB2,-1.084847615000001
mp-756296,ErTiO3,-3.644023935166667
mp-851,ErPd,-0.960327171666666
mp-21372,CePRuO,-2.227316696160712
mp-10731,Ba2PrSbO6,-2.988008800166666
mp-29704,Cs(SO2)2,-1.8032474931650242
mp-570298,Ba(SbAu)2,-0.6094389680000031
mp-558469,Ag2PS3,-0.245700197167034
mp-6493,CaMgSiO4,-3.360924786785713
mp-705900,Hf3Tl10Mo12PbO48,-2.074633520045076
mp-30550,AlAu2,-0.32969789800000204
mp-558195,Ba2HoB2ClO6,-3.329889633194444
mp-556030,BaCuCO3F2,-2.449935235624999
mp-773061,Ba6Ti7Nb9O42,-3.322588095677083
mp-1619,Ba3Si4,-0.367520217857141
mp-761036,CdSeO4,-1.3100962353906231
mp-631301,HgPRh,0.749615553174602
mp-763353,Fe4O5F3,-1.844497420833332
mp-776076,BaSiO3,-3.365093341749999
mp-669471,HgS4(NCl)3,-0.19610546272727303
mp-559094,Cu2H3ClO3,-1.065993855416666
mp-19214,CeVO4,-3.147866788333333
mp-755652,Dy3TaO7,-3.860788213393936
mp-29187,Co(SiP)3,-0.301811617204082
mp-772748,Ba2P6O17,-2.846314749714285
mp-24058,AgBH2OF4,-2.163186291203704
mp-5679,CdSO4,-1.823653553749999
mp-14001,Ba4SiAs4,-0.9948720494444391
mp-675426,Ba3PrF9,-4.18362401897436
mp-5688,Er(FeSi)2,-0.6511957740000001
mp-570561,Dy2MgSi2,-0.6758494286666631
mp-557055,CuClF10,-0.6936185260416661
mp-19955,Co2CuGe2,-0.07822026500000101
mp-559257,AgTeO3,-1.146425267166666
mp-36223,Ba(PrS2)2,-2.323321349047618
mp-560165,Cu(BiO2)2,-1.3516536721428571
mp-1007819,CoW,0.353817571666663
mp-9324,Ba3MnN3,-0.811151963275859
mp-5065,Al2SiO5,-3.3768698634375
mp-643702,Cs3ZnH5,-0.299532800023946
mp-570530,Cs(BCl)6,-1.236492964396551
mp-24341,CsBeH3,-0.20423279668103503
mp-32531,Ba2V3O9,-2.8205224225
mp-554185,AlPO4,-3.106197044732142
mp-29400,CsFeCl3,-1.645267076931034
mp-720712,Cr2H24(IN3)3,-0.560167718026316
mp-674355,Co(NiS2)2,-0.710747377857131
mp-2898,Ca(AuO2)2,-1.466215879285709
mp-5777,BaTiO3,-3.492277977666666
mp-34011,Ca(HoS2)2,-2.365732046607109
mp-762501,CaH8(NO5)2,-1.364188243571429
mp-7703,DyTaO4,-3.7336660264999892
mp-642740,CsLi(H2N)2,-0.5114048326652301
mp-780569,Ba8Nb7O24,-3.205701243333334
mp-557103,B5Pb2ClO9,-2.564297677107843
mp-16531,BaLa2FeS5,-2.049230424722222
mp-631440,BiTeIr,0.9243571516666591
mp-540949,Ba3SrNb2O9,-3.2635678793333343
mp-677093,Cr(InS2)2,-0.8329974054761891
mp-772141,Ba2LaI7,-1.93744041775
mp-5792,BaCuSn2,-0.451466058749998
mp-17325,Ba5Sn3,-0.6202585968749991
mp-697815,Cr(PO4)2,-2.103953685389611
mp-752420,Ba3Y2F12,-4.288024061470588
mp-998151,CaTlCl3,-2.187151110666668
mp-2653,BN,-1.318274873125002
mp-570610,CdI2,-0.826836906564101
mp-2983,Ba(PN2)2,-1.03798089835034
mp-570245,Ba2GaGeN,-0.6563462725000001
mp-4376,BaAlF5,-4.044061821071429
mp-16234,CsAg3Se2,-0.58239625405711
mp-9668,Ba3TiS5,-2.147024222314816
mp-569168,Ba6NaCu3Te14,-1.2376389456130261
mp-996979,BaAgO2,-1.7076398941666642
mp-1018141,BaC2,0.17763013666666602
mp-28395,B6P,-0.326223649710885
mp-569346,CuI,-0.33453556833333103
mp-28534,CaInBr3,-1.824617550333334
mp-569267,Ca2CdSb2,-0.854672659499999
mp-759882,AgBH8C4(N2F)4,-0.8293312986858971
mp-16795,CaAlF5,-4.007732106428571
mp-13435,CeMgNi4,-0.38833065916666604
mp-631502,CrNi2Hg,0.40069030875000006
mp-6962,Ba(AsPd)2,-0.7519927030000001
mp-607,CeRu2,-0.282104381666661
mp-505815,CsLa2CuSe4,-1.819113964253771
mp-672339,Ag2Hg7(P4I3)2,-0.22751676817287902
mp-561356,Cs2UP2O9,-3.006360517042576
mp-567598,Dy7(TeIr)2,-0.9121505640909031
mp-541750,CsS2N(O2F)2,-1.783460926715517
mp-540578,Cs2ZnCl4,-1.900625419285715
mp-6037,Ba2SmSbO6,-3.0407220915
mp-541025,Ca3SiH30CSO25,-1.692486790163934
mp-861978,Hf2ReIr,-0.747699680624995
mp-19997,EuIn2Ni,-0.36621888083333404
mp-1019740,GaB3N4,-0.827521871562501
mp-31163,Ce2Si3Rh,-0.8556015383333341
mp-775131,Co3Sn(PO4)4,-2.17018867389881
mp-936,Hg4Pt,-0.123063639999998
mp-779435,Ga3NO3,-1.7401503624999992
mp-10904,AlPt,-1.13101585
mp-555699,BaLa(BiS3)2,-1.487824404749999
mp-504457,BaTi6O13,-3.5057649042500003
mp-3706,Ho2Co12P7,-0.7903124863095221
mp-676036,Ba(FeS2)2,-1.123105345714284
mp-756458,ErAlO3,-3.763360320499997
mp-1019589,Ce3Zr5O16,-3.810555288749999
mp-540950,Ba3SrTa2O9,-3.4044608436444452
mp-866314,Ca5Al2(SiN4)2,-1.381626434117646
mp-6793,BaLa2ZnO5,-3.190330179444444
mp-22735,Ca2Sn,-0.647288542499997
mp-38685,CeSbO3,-2.482143209999999
mp-22876,CsI3,-1.113519470538793
mp-510367,Fe2P2O7,-2.352210801753246
mp-18257,Fe7C3,0.081094369999999
mp-1885,AlIr,-1.070602759999999
mp-679984,Cs4Ru2Cl10O,-1.708788028595334
mp-14386,Ba3Lu(BO3)3,-3.3210013442187503
mp-1019519,Ba2NaO,-1.448841951594827
mp-406,CdTe,-0.5607400050000031
mp-865176,HfCu3,-0.088264962499999
mp-1019511,AlPO4,-3.095414375357142
mp-2157,Co3W,0.108725058749999
mp-569218,Ba3Al3Ga2,-0.34317177062499804
mp-580589,Cs2NaErCl6,-2.500041670068965
mp-27262,Ca9Zn4Bi9,-0.6556539261363671
mp-20680,Ce4Sb3,-1.224334623571431
mp-793,Ca5Si3,-0.554245293125001
mp-570775,BaAu,-0.722707377499999
mp-683949,AlP3(NCl3)3,-1.217456713839285
mp-733653,CaAl2Si2(H2O5)2,-2.724018262368422
mp-769778,Ca2In2O5,-2.538643234259259
mp-622105,Ba2DyCu3O7,-2.188257008974358
mp-1113,BW2,-0.24568312916666402
mp-631388,CdIrRu,0.622512745477645
mp-17128,CsTb(PO3)4,-2.9250557466607363
mp-861909,CdGaRh2,-0.357465039374998
mp-684591,Al2O3,-3.30116479525
mp-35690,Co5RuO8,-1.308138256428572
mp-583684,EuCd11,-0.156274763333333
mp-30433,BaSn3Pt,-0.681184819000002
mp-21495,CrFeP,-0.557252527380952
mp-568021,Er3AlC,-0.430918176999999
mp-983583,Er2ZnCu,-0.303155337499998
mp-754140,CaSeO3,-2.285101090968751
mp-689940,CoPO4,-2.088793268690478
mp-1018694,ErZnGa,-0.6621560427777781
mp-583234,Bi4I,-0.161865844000005
mp-28705,CaB2Rh3,-0.6132523613888891
mp-866025,CsCr5Te8,-0.568581783070606
mp-557911,Al3Pb5F19,-3.129961640277751
mp-19035,BaFeO3,-2.102256507666665
mp-558539,Cs2Ba2(CO3)3,-2.453567828394397
mp-760121,Bi12Rh12O41,-1.449872521000001
mp-3813,Ba2ZrS4,-2.173588482857141
mp-867266,CaMgTl2,-0.266686155416668
mp-752711,BaSr2I6,-1.933720388611111
mp-614964,Ba2PrCu3O8,-2.020367621547618
mp-27891,Bi2SO2,-1.338651716499998
mp-12699,Ca3Au4,-0.8282316014285731
mp-19178,CoAgO2,-1.005616199166666
mp-559808,Cs3PO4,-2.465980221076048
mp-554255,Ba3(PS4)2,-1.567299162637351
mp-997038,AgPdO2,-0.6587361541666651
mp-581584,Cs2U(SiO4)2,-3.198274611966179
mp-23116,CuBiSeO,-0.950861200585937
mp-985292,AgBO3,-0.546613989166666
mp-631521,BaHfMo,1.187178816666667
mp-556377,Ba17Dy16Zn8Pt4O57,-2.987297528937907
mp-626264,Ba(H8O5)2,-1.370622975
mp-706325,CaDyMnSnO6,-2.6550561534597703
mp-669564,CsRe6S8Br3,-1.023868638869732
mp-11031,CeAl7Au3,-0.492241790454544
mp-1018161,CrNiSb,-0.015090736666666
mp-561172,BaBi4(BrO3)2,-1.769119293846154
mp-505104,Cu3BiSe2ClO8,-1.212203975645833
mp-1014332,C3N,3.192666354374998
mp-672306,Ba6In5N,-0.47493978277777604
mp-7720,Ce2Ga10Ni,-0.43217874961538505
mp-569484,Cs3Ti2Cl9,-2.075082679345237
mp-988939,AlAs,-0.0017720312500000002
mp-25960,Bi(PO3)4,-2.342077105210084
mp-13361,Cd2Cu(PO4)2,-2.140788739175835
mp-766,As2Ru,-0.45673630666666704
mp-15641,CaMgGe,-0.6504774483333331
mp-1871,Fe2C,0.060147375
mp-23611,BaTa2Bi2O9,-2.782548545690477
mp-572833,Cs3Sm(PS4)2,-1.364161415053659
mp-11007,CaPSe3,-1.051984898032739
mp-865213,Ba8Bi4H2O,-1.149139399166667
mp-18743,CaMnP2O7,-2.901390524292431
mp-1009827,BaSi2,0.166200966666666
mp-752404,Ba2Sb2O7,-2.463259181363635
mp-768402,Ba3Y2Br12,-2.394658194117647
mp-775991,CrCo3(PO4)4,-2.161926772023809
mp-780121,Fe4O5F3,-1.221304275833333
mp-21466,Ca2RuO4,-2.520399839285713
mp-29717,Ag(W3Br7)2,-0.8251726423412681
mp-30303,Bi4O7,-1.569201818181821
mp-21651,Ce5Ge2Ru,-0.5581275034374981
mp-675942,AgClO2,-0.16089666166666602
mp-555387,BaSi2(BO4)2,-3.198053383333333
mp-562394,Cs4Li2(Si2O5)3,-2.946351956862494
mp-6562,Ba2CuHgO4,-1.9530175465625002
mp-18866,CaV4O9,-2.640345206785715
mp-704189,CoPO4,-2.0830309474404762
mp-571053,Al5Mo,-0.266545990833332
mp-2284,AgF2,-1.311622154166665
mp-770887,BeCrO4,-2.060414783749999
mp-30187,Ga2Te4O11,-1.714579051568626
mp-39288,BaLaMgNbO6,-3.313065879
mp-647813,Cs2CrO4,-2.067413580972909
mp-559933,Ba3In2Cl2O5,-2.5790751206944442
mp-27887,Ba3(Si2P3)2,-0.6559744659890101
mp-568062,DyTlSe2,-1.611610018281247
mp-13271,ErAsPd,-1.300302336944445
mp-31756,Ba2FeReO6,-2.48591545325
mp-23752,Cs2MgH4,-0.297998949901479
mp-1008555,AlCu3,-0.19345201249999902
mp-699403,BaLa3TiCr3O12,-3.242357749166665
mp-23038,CsVBr3,-1.582757883931035
mp-21878,CeCo4B,-0.273753884027776
mp-997182,C,0.014401535000001001
mp-996980,AgAuO2,-0.45604135291666703
mp-1323,AlF3,-3.851997168593749
mp-1019529,Ba8Al10B12O41,-3.24796155359155
mp-20384,CeAgAs2,-0.7708415404166661
mp-621612,AgPb2Br5,-1.099094383333332
mp-867306,AlCuAu2,-0.25772352000000004
mp-21351,Dy2In,-0.481883855000001
mp-769610,Ca5Ta4O15,-3.4342318383055552
mp-505418,CsDyI3,-1.471886077264367
mp-2629,Ce7O12,-3.917592265263155
mp-769394,Ba4Ta2O9,-3.278819089977778
mp-559691,Ca2Al2SiO7,-3.443058467916666
mp-27821,Ag3P11,-0.046166636624148
mp-984762,CsY,0.7168820927011481
mp-561550,Ag3BO3,-1.2012752898809511
mp-779742,Cs2ZnH12(SeO7)2,-1.425941396580575
mp-5451,Er(FeGe)2,-0.448418683999994
mp-753942,BaY3Br11,-2.262479380333332
mp-19767,DyCoSi,-0.688029722222218
mp-16480,Al3Au8,-0.28178494340909804
mp-1525,CeTe,-1.571865663333332
mp-13434,CaMgNi4,-0.19381255416666401
mp-865358,DySnRu2,-0.354631731666665
mp-13675,CdPd3O4,-0.925313815624998
mp-99,Er,0.012441721666668001
mp-32857,Cu13Se8,-0.104366369642859
mp-675643,Ce5AgS8,-2.068612170119046
mp-19049,BaTeMo2O9,-2.150592575128206
mp-669393,Dy2Fe3Si5,-0.656940439333339
mp-1019563,Ca2SiO4,-3.244030833571428
mp-722262,CaB3H3O7,-2.495121676874999
mp-2014,DyP,-1.856365871488094
mp-27686,Cd2P2O7,-2.340521466753244
mp-776608,Ca2Ti6N2O11,-3.153649963571427
mp-20717,CrAs,-0.1856117475
mp-581165,Cs2Xe(BrF7)4,-1.467426919194581
mp-997034,BaCuO2,-1.99196457625
mp-755316,Dy2Sb2O7,-2.725744825757574
mp-558775,Al3Pb5F19,-3.142488636759234
mp-7247,CeZn3Cu2,-0.259160623333333
mp-16886,CdAu,-0.211002030555549
mp-1915,Fe2B,-0.307493444722221
mp-36738,Fe2CoO4,-1.460904134523811
mp-757688,BaNb8O14,-2.863603719130435
mp-13089,Cu2SnTe3,-0.173462425333331
mp-617283,Cu2AsClO4,-1.187193590937501
mp-557133,Cs2KMoF6,-2.985054783656035
mp-27594,As4(Pb3S5)3,-0.654145270446427
mp-541310,CaGaGe,-0.6135812216666661
mp-13342,ErB4Rh,-0.62449847111111
mp-17960,BaSm2O4,-3.575071462499998
mp-570001,Al6Fe,-0.195844072142856
mp-13935,Ba2YbReO6,-2.933922713000001
mp-2542,BeO,-3.102855802499999
mp-19344,Cr2NiO4,-2.033889613571428
mp-37727,Er10Ti6O27,-3.660454618953488
mp-770957,Be(CoO2)2,-1.790018201428597
mp-655448,Dy3Ge4,-0.871382390714286
mp-5881,CoSbS,-0.37052628010416705
mp-4189,Dy6FeSb2,-0.5848783722222191
mp-989556,Cs2NaPbF6,-2.769691429068965
mp-555026,AlF3,-3.850576290499999
mp-20802,Eu(POs)2,-0.7919073121904711
mp-720391,BH4NF4,-1.969816386166667
mp-771208,Ba5(Ga3O7)2,-2.647840733
mp-981391,Hg3Ir,0.45966858124999904
mp-1387,AlV3,-0.169027858749999
mp-15021,Ba3Ta5O15,-3.43277349637681
mp-754163,BeClO,-1.77061317
mp-19821,Cr2GeC,-0.07481430749999801
mp-20022,CeGeIr,-0.8855562308333351
mp-983566,Ca2AgGe,-0.5064037787500001
mp-772876,BaSr2I6,-1.973923255833335
mp-567583,CsSbCl6,-1.5385505774568982
mp-541637,Er4I5,-1.136746772777777
mp-22414,CuSeO3,-1.066740095968749
mp-2981,CaTeO3,-2.399536538777777
mp-556369,CdHg2SeO6,-1.070476693234376
mp-4006,ErPO4,-3.512368879107143
mp-30622,Dy5Ru2,-0.34900407904761305
mp-18262,HoAgS2,-1.565599189166663
mp-568790,Ca14GaAs11,-1.1437299875
mp-622591,BaTbF6,-3.805821440208333
mp-1006150,Eu3Re,0.5966979612500011
mp-28995,Cu4SiP8,-0.17165926029304002
mp-761472,Co2CuO4,-1.142483596428572
mp-21245,CePt,-1.233589757499999
mp-766237,Gd3Y13O24,-3.941979760999997
mp-866620,Cs2MgP4(HO2)8,-2.216463746867153
mp-18596,Ca2ZnGe2O7,-2.565611808749999
mp-559332,BiTeIO3,-1.4077099144444452
mp-19733,Ce2In,-0.40696587666666
mp-11291,CeCd,-0.17549402124999902
mp-29526,BrNO3,-0.5361104965000001
mp-781505,Ca3WO6,-3.081071199499997
mp-755,CoSb2,-0.100823533333335
mp-555805,AlSCl7,-0.9023574200347211
mp-755950,Ba2Sc2O5,-3.507443436666667
mp-646392,Dy3Co,-0.14247770374999802
mp-17008,CaTeO3,-2.395319489466665
mp-984707,ErTa3,0.363166789999993
mp-567391,Dy3Se3N,-2.152805241919643
mp-29243,Ba3SnO,-1.531505142000002
mp-570607,Dy5C2I9,-1.428803073958331
mp-17856,Al7CoCu2,-0.27140275074999903
mp-573763,Cs2Te,-1.220100983333334
mp-555271,Ba2Zn2ClF7,-3.256032589583333
mp-545706,Ca3Cu2(BrO2)2,-2.21662937090909
mp-17918,Ba2SnS3F2,-2.481345934375
mp-983565,CuBSe2,-0.186407557656249
mp-11166,BaZnCO3F2,-2.709447530625
mp-2264,ErGe,-0.8526977424999961
mp-17817,Ca3(GeP2)2,-0.924094267433861
mp-29226,Ca3Ga4O9,-2.738889307395833
mp-755991,AgBrO4,-0.15986117986111
mp-4305,Er(CuSi)2,-0.615633444666667
mp-720294,AsH18N3O7,-1.02336146439655
mp-540284,CuPO4,-1.837937719107142
mp-867330,Al2FeNi,-0.499208689999998
mp-559895,ErCuTe2BrO6,-1.964573269848485
mp-558763,Ag2Hg(SeO3)2,-0.9140723493655301
mp-22592,CaTi4(CuO4)3,-2.702762577666666
mp-756365,CaCeO3,-3.6196387079999983
mp-754897,BaTl2O4,-1.666569444166668
mp-1008923,CuN,1.2204936525
mp-7580,Hg3(SF)2,-1.022654033928574
mp-16775,CdCu2,0.012524586666664
mp-675681,Ba4Er3F17,-4.338340205208333
mp-18021,Ge3Mo5C,-0.08898276055555801
mp-22962,CsTiBr3,-1.710980317597699
mp-22511,Ce2MgGe2,-0.646278862999997
mp-569240,Fe3Se4,-0.404479919910713
mp-556400,Cs2K2TeO5,-1.781646286047701
mp-631581,Ag2BBr,0.968938673125001
mp-7910,Al2HgTe4,-0.47700404821428505
mp-567588,DyInRh,-0.7447982094444431
mp-631570,BaTaB,1.513706677833334
mp-1019510,AlPO4,-3.109963765877976
mp-626654,Al(HO)3,-1.9917637298214281
mp-771255,Cs4SiO4,-2.203128711235632
mp-22653,Eu(SiAg)2,-0.31737333766666403
mp-21032,BaIn2Pt,-0.6262856920833311
mp-18950,BaCa(FeO2)4,-2.106169527857143
mp-637052,Hf3(MnGa3)2,-0.40251292507836406
mp-861892,DyInRh2,-0.7474745770833301
mp-984713,Dy3Ga,-0.307412889687501
mp-7422,Ca(CuP)2,-0.635507087190475
mp-769296,AgH9O5,-1.1049056653611111
mp-17564,Ca5Sb3,-1.057943245624999
mp-8975,Hg3(AsO4)2,-1.240190152115388
mp-29096,Hg3(SBr)2,-0.6122714735714321
mp-983850,Ca2AgAu,-0.55499469375
mp-540883,As2P2S7,-0.23662250460362502
mp-571598,Ga2Au7,-0.08493474962962701
mp-561182,Ba4Tl2Cu2HgO10,-1.857605308903509
mp-14536,KNa2Zn3(PO4)3,-2.493450898520818
mp-989638,CaTcN3,-0.57333014225
mp-1019804,KB(SO4)2,-2.139315429493054
mp-775289,Mn3CrCu2(PO4)6,-2.228276082823618
mp-639526,La2(ZnGe2)3,-0.48529985727272806
mp-19455,MnMoO4,-2.083752250488489
mp-24446,LiH2SO4,-1.743029424479166
mp-27925,KEr2F7,-4.2256183490999994
mp-28994,KLi2As,-0.581931216604166
mp-13914,LiCo2Ge,-0.21183492458333303
mp-555257,Mg2BiPO6,-2.709739127464286