material_id,formula,formation_energy
mp-768237,Gd2HfO5,-3.925566379687501
mp-16297,Sc3SnC,-0.8832574550000001
mp-764009,Mn6O7F5,-2.222771484310345
mp-29521,RbBiO2,-1.6940155843750002
mp-781683,LiFeP2HO7,-2.36418065157242
mp-27226,MgCu2O3,-1.588865911666667
mp-773466,NaCu3O4,-1.052201895172413
mp-10983,ErVB4,-0.7305981127777771
mp-2236,UIr,-0.496806767499997
mp-772439,Li3AlFeO4,-2.394250630972222
mp-760255,Li3CuF6,-2.606449026166666
mp-674366,Tl3SiF7,-2.640695425227275
mp-759737,Ti3(SnO5)2,-2.893947579666667
mp-17916,Y3CuGeSe7,-1.5298590284505211
mp-3821,K2PtF6,-2.429395779388886
mp-765286,LiSn(PO3)4,-2.491724696772485
mp-672204,Ga3Ru,-0.400380674374999
mp-755660,Lu3TaO7,-3.897361488393938
mp-767165,K2LiVS4,-1.404636565979165
mp-943492,LiFeSO4F,-2.187057849166667
mp-686208,Li5SiN3,-0.8706298930324081
mp-778150,Li9Nb3P8O29,-2.652807665247813
mp-11279,TiBe,-0.14029816916666601
mp-554223,RbScAs2O7,-2.389020301590909
mp-555858,ZnS,-0.9114680992633931
mp-556,ZrNi,-0.45573371
mp-861616,LiSc2Ir,-0.6665603858333321
mp-770969,LiVSn3(PO4)6,-2.498098317891155
mp-767778,Li2V3Si3O10,-2.7439643487037033
mp-849377,Ni6OF11,-2.156802882222222
mp-865158,YbNdHg2,-0.5491578343750021
mp-17168,Er3Ni7B2,-0.533069076944447
mp-746817,NaV2P2(H4O7)2,-1.9691136889135192
mp-8376,MgAlBO4,-3.175152658452381
mp-2848,Pu5Ir3,-0.13564146109374
mp-510544,SrSm2Nb2O9,-3.436162488214287
mp-559976,Ta2CS2,-1.133026158933333
mp-28510,Li3BiO3,-1.959947816785713
mp-22197,UNi4Sn,-0.22155851249999703
mp-541879,Rb2Ge2S5,-1.0549631925
mp-36515,Pr2USe4,-1.847722611815474
mp-768242,PtO3,-0.594864511874999
mp-673698,Cu2HgI4,-0.19484759821428602
mp-695157,KBaIn2(PO4)3,-2.706149211619048
mp-1536,KSb,-0.571137408125
mp-3950,ErInCu,-0.49477081777777704
mp-556333,K2ZnCu3P3O12F,-2.192421146746728
mp-690568,V2Bi4O11,-1.9264234035294132
mp-677311,Re3Pb3O10,-1.7588102767187501
mp-558777,KNd(SO4)2,-2.546446670395833
mp-865444,LiSc2Pt,-0.7343031858333331
mp-2026,PrTl3,-0.39557035291667103
mp-675626,Cu3AsSe4,-0.19322776734375102
mp-19116,Sr2CaMoO6,-2.9194941195
mp-14794,K6CoS4,-1.090753118371214
mp-27093,Li3Sn2(PO4)3,-2.506973551696428
mp-997590,La8MgAl7O24,-3.6297833676250013
mp-982040,KBiO3,-1.479716392449999
mp-1014307,ZrC,-0.8451349225000011
mp-2081,TlTe,-0.43137788937500304
mp-555302,CsFeF3,-2.741391856597701
mp-12304,Sc11Ir4,-0.695271722666667
mp-756,TbAl2,-0.5907180399999981
mp-567077,SmB2Rh2C,-0.5890774480555571
mp-2646,Mg3Sb2,-0.421186031
mp-4904,Pr(SiRu)2,-0.844390120333332
mp-771348,LiZn6Fe17O32,-1.661163111130951
mp-30299,RbAsO2,-1.863198834375
mp-10999,LuGeIr,-0.9578623772222241
mp-11086,La2MgCu2,-0.19086639000000002
mp-771325,Dy2Cu2O5,-2.597716778703702
mp-27865,KMgCl3,-2.25049811795
mp-17313,Mg3BeAl8O16,-3.368773322678571
mp-767614,Li3Mn4(PO4)6,-2.4063562962049
mp-30658,VGaNi2,-0.283245548918014
mp-770531,MnP2O7,-2.3826890964716743
mp-698491,NaCa2Al4H8C4ClO20,-2.299679210409483
mp-996973,CuHgO2,-0.745885760625001
mp-989513,SrWN3,-0.807895963250001
mp-977554,MgScAg2,-0.275858943333332
mp-978832,Sm3Pd,-0.16764323249999702
mp-774723,CuH12C3SN6O7,-0.8750415245000001
mp-985586,Na3BrO,-1.615873120827586
mp-13071,Sc2TlC,-0.6224958462499971
mp-20309,EuPb3,-0.35227951375000005
mp-28789,Na4Cu2S3,-0.9756267914463591
mp-1013760,Sn5(S2Cl)2,-0.543799694886362
mp-541707,K6Na3AlSb4,-0.48313343233128003
mp-626143,Mg(HO)2,-1.9931184215000002
mp-5513,Tl3VS4,-0.855684195
mp-704206,Fe9(PO4)8,-2.250618148513119
mp-39419,NdTiCdSbO7,-2.772856553939394
mp-631633,LaCoTc2,0.6380505156260801
mp-10925,Pr2Se2O,-2.7507749761041653
mp-779552,ZnTe2O5,-1.569555230104167
mp-558023,Rb2Sb4O11,-1.982251778235292
mp-568319,DyB6,-0.46050667285714403
mp-561369,K3Bi2(AsO4)3,-1.9404687482125
mp-772212,LiNb5O8,-2.582467811309523
mp-772430,Li2AlFeO4,-2.475174380520832
mp-4195,Tm(NiGe)2,-0.665955976
mp-980094,TiPd,-0.541479458333334
mp-32906,La2S3,-2.488600482937499
mp-774399,LiMnF3,-2.967018108852873
mp-980066,Sm2(CuAs)3,-0.905126596249999
mp-9884,KFeSe2,-0.8848990917343731
mp-19017,LiFePO4,-2.4798960147108833
mp-972630,SmErZn2,-0.335605633749998
mp-763371,LiFe2(CO3)4,-1.70414227754386
mp-754227,Li8NbS6,-1.402430659444444
mp-568525,Sr2SnSe5,-1.360317969570314
mp-760405,ErBO3,-3.474075991833333
mp-22129,DyGaPd,-0.957612830833336
mp-754453,LaTiNO2,-3.009353370166668
mp-778973,Zn(NO3)2,-0.9922043409722221
mp-974635,Rb3Ca,0.186611789375
mp-978950,Sm2ZnIn,-0.395506921666667
mp-676210,LiTiCl3,-1.7198608669583302
mp-28243,RbLiCl2,-2.1881100914583342
mp-755358,LuAlO3,-3.7433915153333333
mp-18108,Dy4(B2O5)3,-3.373301508266665
mp-22428,SrCeO3,-3.614131642999999
mp-9981,Mn2N,-0.435483445905172
mp-974950,Rb3Li,0.14351873104166601
mp-704183,LiMo2PO8,-2.258411951914682
mp-4052,Rb2Mn3Se4,-0.9213093259075681
mp-569121,La2B3Cl,-1.019425579583333
mp-758651,Li3Sb3(PO4)4,-2.410806261483515
mp-13498,Tb2Mg,-0.028155589444445003
mp-8540,NdRhC2,-0.27104082687499903
mp-777065,NaMnPCO7,-2.171589284677564
mp-769856,Li4Fe3NiO8,-1.824947995208334
mp-643564,FeH2SO5,-1.682527692777777
mp-540866,Na6Mg2C4SO16,-2.220387902957793
mp-977578,Zr2TcPd,-0.561379077499999
mp-558248,PrTa3O9,-3.502792147974359
mp-764629,Rb3NaV4H2O13,-2.24524044005997
mp-823,TiCo,-0.407105993333333
mp-975368,LiCa2Mg,-0.018665140416667
mp-541909,Zr2(NiP)3,-1.047464544241071
mp-976584,Hf9Mo4As,-0.263471155892856
mp-17783,Mg3Au,-0.392609770416664
mp-5709,Tl3PO4,-1.894393925580359
mp-19298,La4Ni3O10,-2.7019394758823543
mp-15074,Sr(PIr)2,-1.02326143052381
mp-6987,Sr(GaTe2)2,-0.884241162857145
mp-772780,K3BePCO7,-2.44688432779945
mp-23175,Nd4Bi3,-0.8297247335714311
mp-768197,Li5SbS4,-1.217575693666666
mp-558130,MnBiS2Cl,-0.9383685105862071
mp-769569,Li6MgNi7O16,-1.453635973833333
mp-754214,TlAsO4,-1.408863723472221
mp-776849,Li4V3Sn3(SbO8)2,-2.18747070029762
mp-707960,ZnH12C2(N3Cl2)2,-0.698515356199999
mp-256,LaN,-1.5753903018750002
mp-765744,Mn4O7F,-1.8837828651436772
mp-31143,Er2SnAu2,-0.839084712499998
mp-17243,Pr3CuSnSe7,-1.586328023450519
mp-631429,ZrCrFe,0.7330680966666651
mp-21873,NiAs2,-0.26092191416666505
mp-978523,Sc2ZnCu,-0.31778599500000004
mp-559070,Li2Hg(PO3)4,-2.458917780275689
mp-757578,LiSn(PO3)4,-2.459681894828042
mp-755757,Li2Sn(BO3)2,-2.471332464545454
mp-568968,K2SnHgSe4,-0.9497225364218751
mp-973876,PaBi3,-0.10881314750000101
mp-604254,U2Al20Fe,-0.093879222391302
mp-19208,La2MnCoO6,-3.224243978293104
mp-36890,TaBi3O7,-2.072108100212122
mp-770332,NaBiCSO7,-1.8964879517163
mp-23179,NiBi3,0.036121234374995
mp-10198,Mn3PdN,-0.300649559758619
mp-721617,KMgP(H6O5)2,-1.733076105275714
mp-22712,YPd2Pb,-0.731011029999997
mp-30652,Sc3(MnGa3)2,-0.5230666447472561
mp-6539,RbTiPO5,-3.038539595684524
mp-34584,Zr4N2O5,-3.127777132272727
mp-623024,TiCdF6,-3.277109955416666
mp-1187,ThIr2,-0.89023817333333
mp-628606,Rb2PdI6,-1.005111946111111
mp-1675,Ho3Ge4,-0.772105024285708
mp-12457,LuCuS2,-1.581217371822916
mp-865445,Lu2AgAu,-0.6856060445833301
mp-7562,TaTl3S4,-0.9307974334166691
mp-2086,PuS,-1.7905322431249941
mp-568116,Lu2(CN2)3,-0.986249738939394
mp-763490,Li4Ti3Nb3Cr2O16,-2.808585574761905
mp-1018102,ZrPd2,-0.7919823950000001
mp-8882,GaP,-0.5004573739880961
mp-29873,Rb2CdCl4,-1.9395278435714292
mp-30328,Ho6FeBi2,-0.40966013111110605
mp-752922,Li8HfO6,-2.512032497111112
mp-571169,InBi2Se4Br,-0.775952893880208
mp-14926,Sr2ScF7,-4.241399934749999
mp-518,Ti5Re24,-0.26211301045976804
mp-676456,Sr6La2Ta3Al5O24,-3.5335284908
mp-22827,Er15C19,-0.34012396117646904
mp-558480,K2P2O5F2,-2.793532228980518
mp-30739,Mg3Ir,-0.306952187916664
mp-28550,Hf2Ag3F14,-2.7520634002631583
mp-780231,Hf2N2O,-2.528703031999998
mp-17975,KSrPO4,-3.0583612888418372
mp-2652,Y2O3,-3.953871922749999
mp-778473,Gd3SbO7,-3.346392045454545
mp-11374,DyTl,-0.45001189749999704
mp-781754,Li3Mn2(P2O7)2,-2.6161999049753693
mp-704991,Mn3(PO4)4,-2.190706702928893
mp-2844,ThSi2,-0.6115161466666681
mp-776255,Li5SbS4,-1.183391649291666
mp-570100,Tm(NiP)2,-0.9980335898571441
mp-5418,Li6Zr2O7,-2.865416462333333
mp-29498,WBr2,-0.848889397777778
mp-18562,Na2Si2Se5,-0.989946137164152
mp-1506,Sm5Ge4,-0.8249400563888921
mp-758052,LiCuF3,-2.325024607333334
mp-645130,Pr4MgCo,-0.063820499861111
mp-1081,V3S4,-1.357067588571421
mp-8611,Li8CeO6,-2.434416167777777
mp-27334,Tl3FeCl5,-1.258202050000003
mp-974613,NdP3,-0.421955675982141
mp-625641,H9BrO4,-1.170732704374999
mp-864601,LiMg2Rh,-0.364491183333332
mp-14283,Sr2InF7,-3.681989192416663
mp-11014,K2TeOF4,-2.601646165145834
mp-649616,Pd(XeF8)2,-0.9910050425000001
mp-1016837,SnHgO3,-1.179672492500001
mp-978255,MgTi3,0.157616113749999
mp-24043,H2O,-1.2744305002777772
mp-756500,Sr2CaI6,-1.877707103333333
mp-570989,UCl5,-1.8506782829166681
mp-13444,LiSn,-0.325685672499999
mp-20961,EuPd3S4,-0.985764103906248
mp-765595,Sn(PO3)3,-2.411065001263736
mp-999079,Ti2AlCu,-0.081409876458332
mp-771900,Li3AlCoO4,-2.272821155555556
mp-8888,HoAl3(PbO4)2,-2.986323307857142
mp-18878,LiFeAs2O7,-1.825409485757576
mp-653861,K3Lu(SiO3)3,-3.122942266151042
mp-9743,SrAsPd,-0.9610618408333351
mp-773418,Li2NiSnO4,-1.959586208333333
mp-569054,La2Co3,-0.014482538999999002
mp-769938,TbPrO4,-3.114733618888888
mp-9177,Y2Al3Si2,-0.5741434414285721
mp-19394,LiV2O4,-2.481716318333333
mp-849409,V4(OF3)3,-2.948984149687501
mp-1711,Er3Ge4,-0.7682528285714281
mp-6152,La2ZnIrO6,-2.653771361500001
mp-974505,ReTeO3,-0.9129641048333331
mp-23909,H6CN3ClO,-0.648358978749999
mp-754483,Na3(CuO2)2,-1.333669377126436
mp-17518,Sr2TaN3,-1.363282355180556
mp-37478,La5AgS8,-2.22829787172618
mp-21941,Th(Fe2P)2,-0.6774417156122441
mp-705085,LiCrP4O13,-2.396552154047619
mp-865098,NaLaAu2,-0.619128131594826
mp-753102,La2Bi4O9,-2.379448334333334
mp-567756,La2CN3Cl,-1.628443926428573
mp-1808,Ti2Ni,-0.277328606388889
mp-972937,ScAlCO,-1.86734136375
mp-505483,SmGePt,-1.105550476666664
mp-973065,LaP3,-0.51950893410714
mp-7822,Sc5Si3,-0.7977898131250001
mp-631362,SiTe2Os,0.8935264540624991
mp-559708,Li6ZrBeF12,-3.455651388249999
mp-30844,ScSnPt2,-0.890593649999998
mp-554560,Li4Be3P3BrO12,-2.845733534880951
mp-1020160,Na3Zn(BO2)5,-2.6195551121037512
mp-580327,Gd3(AlNi3)2,-0.5308673372727291
mp-777851,Li3Bi(BO3)2,-2.3906060844444452
mp-756922,Ho2SO2,-3.5824775694999973
mp-865748,YbGaAu2,-0.706596196249996
mp-775971,Li5Sn5(PO4)6,-2.407106244988095
mp-12700,NbPt3,-0.707492294375001
mp-605406,RbU2H5C4O15,-2.11296718662037
mp-697910,K2SiH4(NO)2,-1.321862115409089
mp-558528,La2TiZnO6,-3.398667952833334
mp-752918,NaTi6O12,-3.309966126914701
mp-641703,Li7P3S11,-1.088137318798185
mp-568012,Tb2Zn17,-0.28101262657894704
mp-6648,KLiB4O7,-2.7958759248846152
mp-480,ErPt2,-1.209713291111105
mp-23361,Li5CrCl8,-1.8570389130952392
mp-779739,Hf2N2O,-2.532603968749998
mp-8152,Li2CeAs2,-1.159338309666668
mp-783909,Li2MnSiO4,-2.6811892902622123
mp-19130,KNaFe(Si2O5)2,-2.9045583325664293
mp-769254,Li2CuAsO4,-1.7799291611458332
mp-773572,LiCo6O7,-1.278583967738094
mp-569673,PrI2,-1.567806443055554
mp-764346,Li2FeSiO4,-2.557802987708333
mp-978277,Mg3Cr,0.28454970125
mp-755239,Ga2HgO4,-1.7679808025000012
mp-776408,YNb2NO5,-2.949254528611113
mp-24547,ZnH2(SeO4)2,-1.229102607091346
mp-1185,VRh3,-0.407127117499999
mp-17124,Pr5Ge3,-0.7900635235416651
mp-662567,Nd12Cu6O25,-2.881803220813953
mp-8312,Ta5As4,-0.583565058518521
mp-767769,LiVF5,-3.087254147619048
mp-850362,Li4MnFe3(BO3)4,-2.372542988663793
mp-20437,Sr2SmCu3(PbO4)2,-2.050194317812499
mp-28195,SiAg2O3,-1.750713328055555
mp-866136,Zr6Al16Ru7,-0.7132116018965521
mp-604119,KP(HO2)2,-2.130956677736606
mp-769634,Na3CrPCO7,-2.335569627213906
mp-559514,Nd4S3NCl3,-2.414506331590908
mp-771993,LiZn2Fe9O16,-1.68219853297619
mp-4547,La2TeO2,-3.386965779333334
mp-561375,Pr10S19,-2.076629934831175
mp-772586,Li2Cr2O7,-1.8336556035606062
mp-569653,SnPCl9,-0.871268860497836
mp-28612,Na(LiSi2)3,-0.08302836113793001
mp-1252,ZrBe2,-0.16392619333333502
mp-764980,LiMnF5,-2.6658187583949102
mp-684506,LiBi(PO3)4,-2.53304684010582
mp-7918,HfGeS,-1.219511659166665
mp-770537,LiMn2O3,-2.071978841949234
mp-21281,Th(MnGe)2,-0.46912768517240505
mp-21548,Er(SiNi5)2,-0.44675919692307703
mp-556627,K4GeS4,-1.273913132388889
mp-763347,Li2VO2F,-2.6538534956944453
mp-557835,TlF,-1.868527027499999
mp-29304,Y2InCl7,-2.22526791425
mp-984755,Nb4Ag2O11,-2.5247524522549
mp-4673,SrHfO3,-3.808616651999998
mp-19800,Fe11Si5,-0.32788434999999905
mp-37722,KBH4,-0.45429709020833303
mp-601286,TbCuPbSe3,-1.241465798949651
mp-571330,Nd3AlC,-0.28244175450000103
mp-780585,Ti(FeO2)2,-2.367246567976191
mp-756048,TbErO3,-3.9311991768333323
mp-861597,Pr2Ni12As7,-0.5197382217063491
mp-567864,TlBi(PSe3)2,-0.523172343418156
mp-1030,SbPt7,-0.11450513875000401
mp-570632,ScBi,-0.809993955000003
mp-653973,KZnPO4,-2.513886915925169
mp-768108,Na2FePCO7,-2.237893917491789
mp-510073,RbLi(H2N)2,-0.5154866235416671
mp-11675,NbTe2,-0.7424392444444451
mp-698941,Nd5Fe5As5O4F,-1.66624099525
mp-505794,ScH6N2Cl3,-1.223806307083333
mp-19861,LaCrSb3,-0.6375155514999981
mp-755139,Li5BiS4,-1.2515234546666671
mp-530722,MgAl2O4,-3.362312704285714
mp-20980,NaNdTiO4,-3.335226827458949
mp-1894,WC,-0.153540745
mp-756670,Eu2Pb2O7,-2.157955581363639
mp-616255,In2Sn3S7,-0.5487070521614631
mp-21552,Na2GaCuF7,-2.679259795478056
mp-974782,NdTlAg2,-0.24895425354166703
mp-1020179,Na6Si2O7,-2.49717382396839
mp-21931,Sc11(AlGe4)2,-0.8124502209523801
mp-31141,SrBiAu,-0.40177515979167305
mp-9612,La3Ir3O11,-2.451199532794116
mp-19266,Sr2FeWO6,-2.663015328
mp-558535,La10Se14O,-2.4387671424125
mp-6944,LiTiO2,-2.951234965416666
mp-23838,Zn2PH2CO7,-1.91329851978022
mp-2019,LaRu2,-0.13193389833333302
mp-18745,LaMnSbO,-1.879559361982758
mp-32933,Tm2S3,-2.317882245687502
mp-961646,TiTeOs,-0.299078620555557
mp-27606,ZrAs2,-0.830870645833336
mp-1486,ZnNi,-0.245812779999999
mp-561512,K4Cu4Cl10O,-1.493554024157893
mp-1955,ErCu,-0.284538626666666
mp-684534,LiNbP4O13,-2.680083917205514
mp-772758,Sm2Zr2O7,-3.834063319772727
mp-559287,Ho2Sn3(PbS4)3,-1.133203089499998
mp-31760,Sr2TaFeO6,-3.051403054733333
mp-19511,Li5FeO4,-2.042025744666667
mp-4024,DyAgTe2,-1.120247139166664
mp-3669,Mn(NbS2)4,-1.375455839456233
mp-752998,U3O5,-3.427771539374998
mp-755980,SrCaI4,-1.8999939362499991
mp-981365,V2ReRu,-0.363411096875001
mp-696752,KP(HO2)2,-2.182732729924106
mp-6686,K2NaInF6,-2.9891306462545972
mp-570836,K5Ag2(AsSe3)3,-0.846303704377741
mp-570428,Sc3In,-0.35905095624999905
mp-15643,SrMgGe,-0.524246304999999
mp-12977,Dy2CdPd2,-0.795898240666658
mp-976143,PrDyZn2,-0.31178582583333203
mp-28495,ZrBr2,-1.591170617777777
mp-975421,RbAgO3,-0.453735536833333
mp-28211,IrS3Cl11,-0.339502863229165
mp-554475,LaNb2ClO6,-3.20632168175
mp-9676,K2NaGaAs2,-0.48646579889655206
mp-11142,SrCu9Si4,-0.199613096428571
mp-753627,LiTiP2O7,-2.833840831450217
mp-27171,Hg2P2S7,-0.490929933344155
mp-862996,Pm2CdIn,-0.5265062512500011
mp-627418,Ge7H18O23,-1.537093449427082
mp-772581,LiCr6O11,-2.151999842407408
mp-14476,LiRhO2,-1.547060963333332
mp-669311,In7Te10,-0.458874379411765
mp-623295,SmGaCo,-0.276918830833334
mp-753721,GdOF,-4.18451751
mp-557355,Rb2SiP4O13,-2.736484309428571
mp-758536,KAl2P2H4O11,-2.355682478951786
mp-554430,NaCu(IO3)3,-1.008408598312808
mp-558059,LiMnF4,-2.9340334618773953
mp-753741,Li3CuS2,-1.1420360720833331
mp-7258,K4SnO4,-1.823757819333333
mp-22478,FeGe,-0.12214553083333302
mp-11449,HfMn2,-0.130002007988503
mp-779298,Mn8O13F3,-1.951140568060346
mp-775301,LiV(Si2O5)3,-3.034693407210145
mp-690575,Nb2NiO6,-1.408628871666667
mp-20847,Ti5Sn3,-0.381651281666666
mp-645663,Te2Mo3Se7Br10,-0.8835714365790721
mp-4701,CuSnF6,-2.341765806249999
mp-972082,Tl3Si,0.361464877500004
mp-764518,LiFe8(BO3)8,-2.206693307479675
mp-10173,Li,0.005987748333333
mp-770552,Li4Ti2Cr3Ni3O16,-2.169125769285713
mp-771059,Li4Nb2Co3Sn3O16,-2.217645777440477
mp-644827,TePCl9,-0.6861796870887451
mp-682,NaF,-2.960572454999999
mp-777566,LiVF4,-3.186621228888889
mp-23102,Sr2Cu(ClO)2,-2.448147261428572
mp-27308,SbBrF8,-2.082954932749999
mp-21229,Eu(SiAu)2,-0.511080367000001
mp-763217,LiNiPO4,-2.314607358996598
mp-778405,LiFe2F5,-2.662821085104167
mp-30502,TmCd3,-0.218507263750002
mp-18033,Na2Cu(Si2O5)2,-2.780759016044625
mp-20347,NdSnPt,-1.044637800277784
mp-753722,LiCuS2,-0.771961742083332
mp-189,SiRu,-0.6545326474999981
mp-771843,Mn3(PO4)2,-2.547186984852217
mp-19328,NaWO3,-2.106962365275861
mp-733862,KCaP3(HO2)6,-2.230837368746893
mp-568896,La(AlBr4)3,-1.7695752034375
mp-973508,KRb3,0.028298722562500003
mp-769010,Li6Bi5O14,-1.6565017997999991
mp-6535,NdAl3(BO3)4,-3.235679775958333
mp-559023,Na24In5O15,-1.44395494639629
mp-9968,PrSi,-0.698613104583332
mp-755813,Sc6N2O5,-3.191871448846153
mp-21523,La(In2Au)2,-0.45416815809523103
mp-14038,Rb2NaRhF6,-2.63831338763793
mp-20698,LiCoAs,-0.48908018305555606
mp-41,Zr,0.121641834999998
mp-570362,Sr5In3,-0.33457494749999905
mp-764612,LiFe2(BO3)2,-2.267659910606061
mp-684028,Li3Bi(PO4)2,-2.558272355187075
mp-977539,LiNd2Ru,-0.15116081916666602
mp-1006328,LiCeSn,-0.530154096527776
mp-974625,Re3Ru,-0.050968689374997
mp-780140,Li5(CoO2)4,-1.649950494509804
mp-8076,Na3SbO3,-1.8518035402339872
mp-28663,Mg14Si5O24,-3.159876427906976
mp-14070,RbAlO2,-2.861165701874999
mp-764769,Li4VF7,-3.129158821111111
mp-778147,Na5Bi2P(CO4)4,-2.006372762912121
mp-27094,LiSn2(PO4)3,-2.52634664526455
mp-10429,LaYO3,-3.8749824815
mp-3469,ZrNi2Sb,-0.605580439999999
mp-778009,LiBi6B3O14,-2.063969086909722
mp-753401,Sc2TiO5,-3.806863982916667
mp-866002,YbTl2Cd,-0.110045168749998
mp-778506,Li2VF5,-3.173453677708333
mp-866376,TiMn2Ge,-0.340109056048851
mp-562537,Ta2Ni3S8,-1.044846476512819
mp-540,ScFe2,-0.27394291999999804
mp-560776,Sr3Cu3(PO4)4,-2.628921418406592
mp-558160,NaYCO3F2,-3.089105007359913
mp-19430,Li3Fe2(PO4)3,-2.501981877446428
mp-865921,MgAlIr2,-0.6935179262500011
mp-21483,Nd3In,-0.37270731312499805
mp-768419,La(ClO4)3,-1.035992821875
mp-775204,Li2V3WO8,-2.421827291190477
mp-19495,NdCo(BO2)5,-2.869298354901962
mp-569188,La(AsRu)2,-0.7761043579999941
mp-759624,Li3Bi(PO4)2,-2.530991143520408
mp-567373,LaCN2Cl,-1.510778636
mp-504358,LiCr6P7O24,-2.530631201469297
mp-557753,K3PO4,-2.532319784549107
mp-770379,Tm2GeO5,-3.408265423750012
mp-643061,Mg3ReH7,-0.34762931147727205
mp-19368,Sr2V2O7,-2.915350878409091
mp-759486,LiNbSn3(PO4)6,-2.590371273891156
mp-561011,Li2Ta2(OF2)3,-3.47457102125641
mp-3056,NaTlO2,-1.417691698678162
mp-15103,Sr3Y2(GeO4)3,-3.0728215795
mp-4735,TbCo9Si4,-0.45328976333333304
mp-974267,KH8N3,-0.382997851249999
mp-753881,LiAg2F6,-1.646569212129632
mp-29162,NaNb10O18,-2.782983842806183
mp-770635,LiNiO2,-1.482805537083332
mp-542573,ThB4,-0.6502088425000011
mp-669722,Nd(Sn2Rh)2,-0.6302785857142781
mp-862936,PmMgAg2,-0.28877439395833304
mp-565,Sn2Rh,-0.368384586666665
mp-1019800,K8N3O,0.11451401433333301
mp-780318,LiCoOF2,-2.132512492666666
mp-19043,LiV(SiO3)2,-2.9667807573333342
mp-571347,Pr3CuGeSe7,-1.586641349700519
mp-570442,Th6Mg23,0.028802037413794
mp-20284,PdF2,-1.379162214166664
mp-36111,LiMgP,-0.75129741765873
mp-3677,MgSiN2,-1.346008759375
mp-675918,Li9CrN5,-0.715220347
mp-977143,LaDyRu2,-0.19016786166666502
mp-7476,RbDyO2,-3.039326717291665
mp-777522,LiFeF3,-2.797327263666666
mp-770738,Na3BSbAsO7,-2.112053508138814
mp-22860,LaI,-1.265932434999999
mp-755021,ReO3,-2.128877294375001
mp-569623,Nb(SeBr)2,-1.1611616209375
mp-12406,US3,-1.422330559609374
mp-19489,SmCo(BO2)5,-2.872250434901961
mp-269,TmC2,-0.367530733958335
mp-2695,Sb2Os,-0.08399437833333401
mp-27736,Re2P5,-0.43215579855442204
mp-9039,Sr4IrO6,-2.6421329136363623
mp-28869,Ga3B4Pt9,-0.391908673385414
mp-772676,Sr2WO5,-2.900101233124999
mp-675597,Na3NO2,-0.9680183231896541
mp-6978,RbHoO2,-3.052321075624998
mp-684620,Nb25S48,-1.3650697605479452
mp-774616,H5C3N5O,-0.43512606366071405
mp-764505,LiFe2(BO3)2,-2.265572801287878
mp-631475,TlZn2Tc,0.5903279925
mp-677520,KBa6Zn4(GaO3)7,-2.471919121916666
mp-19072,Si(NiO2)2,-2.114110612142857
mp-25405,LiCuPO4F,-2.155038342872023
mp-12867,SrSnO3,-2.630651680499999
mp-763068,Fe4OF7,-2.414251784583332
mp-977569,NaH6CN2ClO2,-1.048598379913792
mp-777903,Li4Cr2Fe3Sn3O16,-2.02338876529762
mp-977123,NaTiO3,-2.639808749942529
mp-28866,Te2OsCl12,-0.5948473440000001
mp-1877,HoAl3,-0.455262071249999
mp-722485,SrP2(H2O3)3,-2.118942088154762
mp-12061,Lu(FeB)2,-0.47737769700000104
mp-5601,HoCoSn,-0.47805638833332703