material_id,formula,formation_energy
mp-643896,Na2Hf(HO)6,-1.936473975350575
mp-865930,TiZnCu2,-0.166646768333333
mp-864610,Nd2MgAl,-0.24542743249999902
mp-642660,Mg2CoH5,-0.35411876140624904
mp-761191,LiCuPO4,-2.148807061139455
mp-555679,Na2UF6,-3.617886061666667
mp-7462,Hg2SeO4,-0.915080048906252
mp-35746,Sr(YS2)2,-2.367620389107143
mp-27981,PuClO,-2.72245754458333
mp-25305,Y2Ti2S2O5,-3.288295090606061
mp-676673,NaClO2,-0.9024944515948271
mp-865954,LiHo2Rh,-0.49307085583332905
mp-568148,PrZn11,-0.22007836430555602
mp-397,KCd13,-0.07931555205356701
mp-505508,V2Cu2O7,-1.803554598181818
mp-754165,ScGaO3,-3.101253307500001
mp-766134,UH12(NO7)2,-1.470366598965517
mp-975386,RbDyO3,-2.285551702833332
mp-770757,Li2MnFe3O8,-1.7825754367569782
mp-662499,RbMgCl3,-2.275607052499999
mp-755027,In2Sn2O7,-1.963422192121211
mp-555418,Rb3NbH4(C2O5)3,-1.8184624147413802
mp-756198,Li14Mn2S9,-1.3937451576011481
mp-998945,TiNi,-0.32921405666666603
mp-767722,VFe(P2O7)2,-2.475534951678572
mp-976768,NaMg3,0.11308827279102
mp-861912,TaTiTc2,-0.571864508499999
mp-707981,Y4H9NO13,-2.244570618564815
mp-28781,PrZr3F15,-4.097616339824561
mp-28025,Sn2SO5,-1.810662711093749
mp-23376,GaSeBr7,-0.8985914744270831
mp-669566,ZnAu3,-0.15800165999999602
mp-510549,K3B12H12Br,-0.47971511256249805
mp-20952,TiNiSb,-0.557564111111111
mp-585265,LiMo2(PO4)3,-2.507082738458994
mp-554144,K3Mn2F7,-3.001450548551007
mp-999303,PdN,0.8940091675
mp-778450,LaSmO3,-3.8012802165
mp-697664,LiCr4(PO4)3,-2.457389938863095
mp-28103,USCl9,-1.092125913873096
mp-762258,Na2Sn4O9,-2.042354028517242
mp-3664,NdTlS2,-1.699453493958322
mp-605694,NdH12S2NO12,-1.628996286428571
mp-694999,Na3V2P2O10F,-2.662156008245757
mp-1001789,IrC,0.5319193412499991
mp-778224,La4CoO8,-3.192727950384615
mp-979040,TmAl3,-0.45383418499999906
mp-389,SiPd,-0.507645422499999
mp-12100,Lu(SiNi)2,-0.811706787333334
mp-1006058,UCd2O5,-2.500243828124999
mp-760637,LiBiP2O7,-2.489407451147185
mp-29661,Si5Pt6,-0.7208357750000011
mp-22191,HfFeGe,-0.543754382777777
mp-1875,TeF6,-2.162264906071428
mp-31179,Ho(Al2Fe)4,-0.43020847500000803
mp-971836,Zn2NiIr,-0.21680480749999903
mp-15335,Lu2Cu2O5,-2.66516158287037
mp-1018106,YbBiPt,-1.158377599999994
mp-6560,KSO2F,-2.180598777949999
mp-760372,Na5Ti12O24,-3.137328516753574
mp-2826,Lu2S3,-2.354043240354164
mp-12754,ThPt,-1.330774292500002
mp-1936,TaAs,-0.6207010699166701
mp-961715,HfPtPb,0.08038587666666701
mp-759868,Li3Sb2(PO4)3,-2.417695669446428
mp-764852,V6O5F19,-2.733590822666667
mp-867821,TaTiMn2,-0.27812618413218304
mp-768146,Na2AlPCO7,-2.604075094783455
mp-5238,GaCuS2,-0.6988556876562481
mp-4311,HoAgSn,-0.57311995222222
mp-625993,Te(HO)6,-1.247371171089743
mp-780326,Ni(IO3)2,-0.9003699402777771
mp-567978,Pa3P4,-1.347214060272108
mp-2337,HfCo2,-0.28836247333333603
mp-30410,Mn2Au5,-0.300842039852219
mp-556521,KNa7Pb2O7,-1.571181561141479
mp-540258,Ti(PO3)4,-2.707193861288514
mp-6281,NaCa3RuO6,-2.569328564216301
mp-10359,Zr(CoGe)6,-0.205702425769231
mp-17945,RbPSe6,-0.695075516400669
mp-6150,Na4Zr2(SiO4)3,-3.117013184310344
mp-9849,SmP5,-0.6452046758134901
mp-24423,SrHBr,-1.625272778749996
mp-28205,Na3ReO5,-2.14388567795977
mp-542974,K3Nd(PS4)2,-1.3470285206096921
mp-8720,Rb2MnTe2,-0.925376141252873
mp-20467,PuB4,-0.5973231562500011
mp-760678,Sb2H4AuF16,-2.135136125434782
mp-631540,NiBTe,0.7392054047569441
mp-3923,Th2MnN3,-1.6092589417887901
mp-773709,Li3Fe(NiO3)2,-1.633632855
mp-8057,Ti3O5,-3.382133738125
mp-554702,NaZr2NiF11,-3.577501869758632
mp-1008785,RuO2,-1.269603159999999
mp-9427,NaYP2O7,-3.09300787369682
mp-24505,MgAl2P2(HO)18,-1.896250717482578
mp-17734,SrHo2CuO5,-3.098038093055554
mp-541291,Na3MoN3,-0.531690018091132
mp-20264,Tb(FeGe)2,-0.45200329533332506
mp-972051,YbGa2Pd,-0.8552422512500001
mp-9812,ZnCO3,-1.822014750000003
mp-23420,Ge19(PI)4,-0.143230757724867
mp-642938,RbCr4BiO14,-1.713699164125
mp-777674,LiFeF4,-2.777298508055555
mp-5403,Rb2TiO3,-2.751183317222221
mp-762830,Li4Mn2Nb3V3O16,-2.596680391756978
mp-22447,Zr3P,-0.8616835692857141
mp-975524,InGe3,0.282993268749999
mp-11344,PrO,-3.039014093333332
mp-631503,ZrAlW,0.683934473333323
mp-27632,K2TcCl6,-1.5662490636111102
mp-504908,In2TeO6,-1.821049162222222
mp-755619,Sn2P2O7,-2.31086287538961
mp-777668,Li4Ti3Co3(SnO8)2,-2.384046537619048
mp-976147,PrEr3,0.06234438958333
mp-867907,PuSi3,-0.34913472093749903
mp-971794,YMg3,-0.048872288749997
mp-770501,Na6SiNi2(CO4)4,-1.931050239078478
mp-866145,Lu2AgIr,-0.692300233750001
mp-3637,YOF,-4.214092868333336
mp-754979,Y3AlO6,-3.823918631500001
mp-39033,Sr(NdSe2)2,-2.242733372321428
mp-21288,La2InGe2,-0.8702524289999981
mp-3933,Mg2PN3,-1.105098610773809
mp-759878,RbMgH12(ClO2)3,-1.505130707282608
mp-754043,NaLuO2,-3.213810514511494
mp-672657,Hf6Co16Ge7,-0.463417819137928
mp-656852,Ti13O22,-3.379983054809523
mp-977462,ZrCdAu2,-0.5182462562500021
mp-780125,LiCr2P3O13,-2.269456707750626
mp-10137,UB2Ru3,-0.538875150833334
mp-554061,MnSbS2Br,-0.7980574005862061
mp-22146,In3Pd5,-0.5678094987499981
mp-770892,VPO5,-2.47094130637755
mp-12015,KAg2AsO4,-1.346676018510416
mp-29693,Rb2AgCl3,-1.764678433194443
mp-773144,Mn3V2Cr3O16,-2.030839188491379
mp-962058,YSeCl,-1.518122209131955
mp-8380,K2Si4O9,-3.0335081523
mp-28375,Ta2AgF12,-2.9984202086444443
mp-975537,NdInRh2,-0.5983264660416671
mp-770843,VCrO3,-2.439380242499999
mp-777489,LiFeF3,-2.7277994779999992
mp-1886,TbTl3,-0.242862734166672
mp-676598,TlPbCl3,-1.440157667916668
mp-17534,Ho2Ge5Rh3,-0.769641921999998
mp-8930,K2GeAs2,-0.386287133900002
mp-14988,K4SnO3,-1.581512152843749
mp-570548,NaPr4I7N2,-1.7062694559318552
mp-849441,LiVP3HO10,-2.484277875219494
mp-1783,MnS,-1.128444258647629
mp-29488,Na2ZnO2,-1.6469667305517222
mp-28044,TmCl3,-2.512653630624999
mp-570646,Nd4Te3N2,-1.783982662499997
mp-775023,Li2Fe3SnO8,-1.848115953690476
mp-571103,In5AgSe8,-0.6442695691071421
mp-2126,HfIr3,-0.817064965000003
mp-973334,NaMg,0.12335570384343801
mp-10918,Rb2PdC2,0.038577118999999
mp-15789,LiDyS2,-2.094347057499999
mp-764448,V2OF5,-3.002597673333333
mp-715493,V4O7,-2.314937833181819
mp-779909,V6O7F5,-2.7619774550000002
mp-770489,Li6Cr3Fe(PO4)6,-2.585449242446429
mp-753000,NaSb3O8,-1.8940249213649412
mp-600023,SiO2,-3.249977835
mp-768288,Li3FeS3,-1.095195189999999
mp-5126,ZnSO4,-1.8630929675
mp-625465,Tm(HO)3,-2.248796895535715
mp-19457,V6O13,-2.354573986052631
mp-761602,Li3Fe(CoO3)2,-1.778827615
mp-1009495,OsN,1.378461817499999
mp-23419,Sb4Cl2O5,-1.690999615
mp-27169,KTa5O13,-3.291708990864036
mp-776754,Li2Fe3F8,-2.741637533589744
mp-30361,Zn8Ag5,-0.023234960769229002
mp-1670,MnPt,-0.346201598965516
mp-43188,Na8BeAl4Si7(BrO12)2,-2.9735015216529233
mp-996987,LiCuO2,-1.428987384583333
mp-30724,ThHg3,-0.301461461875
mp-13516,TmAl3(BO3)4,-3.253034671833333
mp-982065,PrHo3,0.052447495833334
mp-14383,KGePO5,-2.4659948005491072
mp-684470,Li3Sn2P5O16,-2.524975561662088
mp-753148,Li2Cu7F16,-1.952140112133331
mp-776439,SmTmO3,-3.924406718000002
mp-1053,NdZn,-0.314734558749997
mp-28135,NbXeF11,-1.975444197307692
mp-720874,PH5NO4,-1.470626498035714
mp-10804,NaYPO4F,-3.33657183637777
mp-632810,Pr3Ga10Ni,-0.5532929907142861
mp-760131,Li2Cu2F7,-2.241372020757587
mp-3108,Lu(SiRh)2,-1.16606968733333
mp-771579,Li7W5O16,-2.219585603333332
mp-2955,NaMgF3,-3.5070236325
mp-30713,Ho2Zn17,-0.23626001684210302
mp-715553,VO2,-2.408770690000002
mp-11025,ZnP2,-0.315425149067459
mp-541347,Er2Au5F21,-2.228142117142857
mp-778949,Li2CuPO4,-2.29078891641369
mp-971704,ZnBO3,-1.038755996833332
mp-771658,Li2NiH12(SO7)2,-1.560249456344086
mp-865948,Ti2ReRh,-0.6564465847916661
mp-770682,Li2Co(Si2O5)2,-2.821727428333333
mp-11991,Nd2CdNi2,-0.349356252999993
mp-17435,Zr4Fe4Si7,-0.7132539106666661
mp-557001,RbSO4F,-1.776563467142856
mp-3388,U(SiRu)2,-0.620301725999998
mp-581510,La4CdCo,-0.189479653750001
mp-695511,Na2CaTi2(GeO4)3,-2.7223261674712633
mp-773646,InP2H9(NO4)2,-1.575112780781926
mp-778261,Li4TiMn3Cr2(PO4)6,-2.6037366687079233
mp-29711,Tl2Te3,-0.44422730733333504
mp-15547,Na2ZnGaF7,-2.902433967523511
mp-30317,Sr2AuN,-0.7242594735625011
mp-773843,LiTi2(PO4)3,-3.010003349107143
mp-20133,NbCrN,-0.726820139583331
mp-766938,K3Li2Nb5O15,-2.863510178936667
mp-669913,Sr2Pb3,-0.582669615999998
mp-29114,Re3Te4Cl5,-0.852995408993055
mp-606393,NbBr3O,-1.819446558499999
mp-764732,LiCo2(PO4)3,-1.995279845542327
mp-2044,Zr5Al3,-0.400025199124996
mp-753387,Li2Cu3F8,-2.191655164102563
mp-560631,KUSi2O7,-3.33671847156818
mp-972493,Sm2MgRu,-0.10887526374999901
mp-27773,H5IO6,-1.003818804479166
mp-2359,NdPt5,-0.6934569879166661
mp-770111,PrBiO4,-2.384711510277779
mp-5219,Ho(SiOs)2,-0.809614938999999
mp-6316,Er4Si2S3O7,-3.256887676718749
mp-3810,Hg(AsO3)2,-1.465298451944445
mp-20354,MgMnGe,-0.191432275977012
mp-23415,TlFeI3,-0.41113109366666806
mp-1934,LiZn,-0.22010558833333302
mp-978853,Sr(GeIr)2,-0.7354772099999991
mp-31056,Dy3InN,-1.203262676749994
mp-754613,K2ErPCO7,-2.790824125345237
mp-16290,ZnNi3C,-0.058996034999999
mp-31069,P2Pb8O13,-1.955903735838509
mp-1753,ThAs,-1.608917741250003
mp-753920,Tm2SeO2,-3.518511036468754
mp-556719,K2Ti(SiO3)3,-3.142049877188889
mp-780116,Mn6O5F7,-2.437339827643678
mp-569843,MnBr2,-1.168903279310344
mp-10970,LiErO2,-3.321671447083332
mp-555990,Er2SiSO4,-3.460493296562498
mp-30701,Sc3(Ga3Fe)2,-0.47767977431818204
mp-766204,ZnPH5C2N4O3,-0.9598750228683041
mp-2833,IrS2,-0.502745337291661
mp-13189,SrLuCuS3,-1.93318916236111
mp-5410,SmCo3B2,-0.41249696555555504
mp-971868,TmMgAg2,-0.293119659583333
mp-14363,Rb2LiAsO4,-2.107650687604167
mp-777675,Li3V5O12,-2.413488592999999
mp-682592,K2Ca2C2O3F2,-2.056766176318182
mp-10783,RbHoSe2,-1.958008406796873
mp-961702,LaSbPt,-0.655499741666666
mp-16699,Li6Gd(BO3)3,-2.807994058947367
mp-20303,LaIn4Ni,-0.387117458611108
mp-779789,Li4Mn3Fe(BO3)4,-2.461447549533046
mp-504894,MgH12SeO9,-1.450406774667119
mp-554959,K2Al2Sb2O7,-2.53295952226923
mp-771388,MnP2O7,-2.378073908221675
mp-568090,LaBC,-0.49957925366666706
mp-14304,Lu2MgS4,-2.177599468333334
mp-4913,LiGa2Rh,-0.550842277083332
mp-631324,HfMnTl,0.9451384967001951
mp-1018074,GaFeNi2,-0.20946273687499803
mp-14235,SrGa2(SiO4)2,-2.987542761153846
mp-560223,K2Se(SO3)2,-1.85027872834943
mp-8453,RbNaO,-1.267481359626435
mp-754472,HoCuO2,-2.754892171249999
mp-768176,TmTaO4,-3.663232986222223
mp-769627,V2CrFe3(PO4)6,-2.418208928551585
mp-17446,PrPtF7,-2.9053396454629583
mp-22574,HgP14Pb,-0.038841564322915
mp-864979,Gd2ReC2,-0.45731417650000006
mp-17466,Hf5Sb3,-0.522988868437494
mp-7770,Sr(ZnAs)2,-0.6637263550000001
mp-769584,NaMnPCO7,-2.1713481635412
mp-999543,MnCo3,0.10298715301724101
mp-866211,Lu2CdIn,-0.44734871333333304
mp-28870,PRhO4,-1.968267120773808
mp-7228,ReO2,-1.8952337825
mp-977058,NpBO3,-2.262327972583333
mp-10026,ScTe,-1.388611533333332
mp-569179,Ni3Mo3C,-0.044803587500000006
mp-22646,InPd2,-0.5518911749999941
mp-23714,SrH2,-0.647579579999999
mp-19004,Sr8Fe8O23,-2.262595125512822
mp-6785,K3UO2F5,-3.407082027431817
mp-561118,ZnS,-0.9621595995312511
mp-867214,Er2IrRu,-0.6863176874999981
mp-1683,ZrSe3,-1.236771233046873
mp-570073,Np(NiGe)2,-0.537845333749999
mp-510519,Rb2V3O8,-2.452017968076925
mp-867145,LiHo2Ga,-0.30585662770833
mp-39025,NbO2F,-3.043186816249998
mp-21853,SmIn2Ir,-0.679197829999999
mp-556179,Pr3Si2S8Cl,-1.843657997857143
mp-6017,Na3In(PO4)2,-2.547104268577879
mp-690515,K2CoH2(SeO5)2,-1.380870890099264
mp-769499,LiLa8V8O32,-3.116218820068027
mp-976809,Ni3S,0.021274810624999002
mp-567638,TaPt3,-0.7071258774583331
mp-38418,Tm2Ti2O7,-3.7852587137878793
mp-22216,In2S3,-0.743551954687498
mp-762063,Na4Cu6O5,-1.063520374034483
mp-505311,Sr2CrCuSO3,-2.2969254753125
mp-975972,PrLuMg2,-0.063278377083333
mp-650816,La5V3S6O7,-2.761322732857142
mp-756557,LiY4Ti4(S2O5)2,-3.190923624637682
mp-961722,TiBiRh,-0.031065807777778003
mp-777418,Li2FeF4,-2.890123206666667
mp-3657,TiCo2Si,-0.6928583329166661
mp-24303,Mg3P4H48(NO15)2,-1.470286992684728
mp-1959,PuO2,-3.493067072916661
mp-770539,Li5Ti2Ni5O12,-2.11622174888889
mp-568411,Th2Ga,-0.41488558499999806
mp-754629,WN2,-0.361949071597226
mp-999392,NbCr3,0.3813421075
mp-5318,MnCoSb,-0.126204628477009
mp-754824,SrO,-2.98763705
mp-667421,SrTeO3,-2.374470917500001
mp-675462,Mo2RuSe4,-0.6686127094642901
mp-9257,Yb(CdSb)2,-0.372389270999997
mp-18924,Sr3(FeO3)2,-2.514771984545455
mp-774462,LiFePO5,-2.173304322247024
mp-31817,Li2Fe(PO3)4,-2.56782541764411
mp-780327,LiMn3(BO3)3,-2.395054243726653
mp-976893,Ni3Sb,-0.0796730925
mp-773588,Sc6N2O5,-3.168884903461538
mp-975793,PrTmTl2,-0.43541068041666603
mp-625733,La(HO)3,-2.236058751250002
mp-975788,Pr2AgHg,-0.354060134375
mp-771762,Ho3Sb5O12,-2.668668721999999
mp-14377,KTaGeO5,-2.7484462021354172
mp-20393,Sr2InPt2,-0.8109965143333281
mp-675477,Sn4Bi2Se7,-0.41104243180287603
mp-1019745,K2Ca3Si3O10,-3.194926496083334
mp-27374,NaAsSe2,-0.645281254062499
mp-1236,NdAg,-0.279320871249996
mp-19735,La2CuO4,-2.971538255714286
mp-5861,Tm2Fe14B,-0.12041762759803701
mp-764764,Li7Mn5O12,-2.156460471166188
mp-770549,Li4Cr3Cu3(TeO8)2,-1.811136050238094
mp-748,Ti5O9,-3.425320040833333
mp-567714,Rb2AgBr3,-1.576850249027777
mp-567996,Nb5Si3,-0.6709278362499981
mp-1841,SiIr3,-0.404167635000007
mp-625394,La(HO)3,-2.236421412678574
mp-779153,Li3Mn2(CoO4)2,-1.799279267057471
mp-1337,MoAs2,-0.27182744000000003
mp-976581,Nd3I,-0.233259760624999
mp-778284,Li4V3Co2Sn3O16,-2.135569647797619
mp-11069,YbAgSn,-0.5185600477777791
mp-765608,Na7Mn11O24,-1.934069023973728
mp-752581,Sr2HfO4,-3.588416688928572
mp-999517,MnN,-0.23715261442887903
mp-707097,NaGdRe4(H2O5)4,-2.009472192981745
mp-620369,TaAg7S6,-0.47291320885714105
mp-15144,ZnAg2GeO4,-1.353360922916665
mp-772564,NiH8(CO5)2,-1.2920359242857131
mp-758780,LiBiP2O7,-2.488009076829004
mp-2775,SrAl4,-0.258510972
mp-755576,Zr2N2O,-2.250364738
mp-532604,Na2Zr12B2I5Cl23,-2.001510168206635
mp-752658,Y2SeO2,-3.44194683646875
mp-775755,Li4Ti3Ni3(SbO8)2,-2.389765254047619
mp-13960,Sr3Er2(BO3)4,-3.371833870912698
mp-5088,NaGdO2,-3.074661041594829
mp-16159,Pr4Si2S3O7,-3.2350893666666662
mp-40886,ZnC2S2(OF)6,-1.823150915
mp-559533,NaLiCO3,-2.166029712081736
mp-570141,Sm2(PPt2)3,-0.989561086720778
mp-31386,HoGaPd,-0.8913679216666601
mp-16107,Rb3P6N11,-0.7998633038928581
mp-695873,ZnP3H12NO13,-1.700236457464285
mp-29358,Zr6BCl14,-1.9724462927380952
mp-555608,Na3Sc2(PO4)3,-3.060567849153325
mp-759198,Li2AgF3,-2.41361074472222
mp-7171,TmP,-1.844200528988096
mp-6112,K6Na3GaSb4,-0.48219068465270803
mp-568779,Tb3CuSiSe7,-1.593316914283856
mp-532290,Zr3BiF15,-3.749368297763158
mp-27575,Te5(O2F11)2,-2.204554360591398
mp-8405,Li3LaSb2,-1.041515827499999
mp-773180,Li4Mn3Sn5O16,-2.13877079329023
mp-17056,LiZnPO4,-2.5430989235204082
mp-558951,K2B6H2O11,-2.5981025803333333
mp-4139,Nb4GaS8,-1.301603242115384
mp-569350,La5Sn3Br,-1.035408082777778
mp-1008805,ReC2,0.453227296249996
mp-571648,Rb2MnCl6,-1.839553694770114
mp-973924,Li(Mg4Al3)4,-0.016288469080459
mp-9250,RbLiSe,-1.33745662939236
mp-756394,Li2V2S5,-1.217849719907407
mp-760812,Li3CuF6,-2.554557467166659
mp-770755,Li3CrO3,-2.191607945714286
mp-988996,FeSbAs,-0.178606929166665
mp-1020026,LiBeBO3,-2.85832689125
mp-20930,InCuO2,-1.482684894166666
mp-997029,TlCuO2,-0.9274780170833341
mp-756811,Li4TiS4,-1.522189093518518
mp-315,PbF2,-2.544010303333332
mp-779455,Li7Ti5O12,-2.9663111137500002
mp-36843,Mn2NiO4,-1.774506774408867
mp-764672,Li3Fe8(BO3)8,-2.252996269612402
mp-29252,Sn2ClF3,-2.072818181666669
mp-28291,Ge(SF6)2,-2.252315123333333
mp-560657,RbLa9(IrO6)4,-2.851549956644737
mp-554376,Y4TiSi2(O3F2)3,-3.930646094242425
mp-1019793,K3La(PO4)2,-2.9902919022168373
mp-772919,Tm4(B2O5)3,-3.384167442600001
mp-774537,Ti2(PO4)3,-2.909770673270307
mp-684944,In2S3,-0.583487045937499
mp-27402,Na2CoCl4,-1.567827010357143
mp-752878,LiAg2F4,-1.747139878809524
mp-722906,Na3CuB8H17O23,-1.955508190456178
mp-569848,LuInPt,-1.127843153333332
mp-767620,LiVSiO4,-2.752032216547618
mp-559426,Pr2Zr2O7,-3.829410627575757
mp-504427,Ti3PbO7,-3.153193498181819
mp-761098,Li3Cu3(PO4)2,-2.076267824955357
mp-27167,Sn2IF3,-2.1130685175
mp-773137,KCaBi,-0.856628366249997
mp-1263,URu3,-0.353888624999996
mp-764501,Na8FeO6,-1.5271764094023
mp-552028,Nd2Ti2S2O5,-3.275363665606061
mp-31002,Rb2Te5,-0.539628082619048
mp-632296,HF,-1.692674703124999
mp-676275,Nd2Pb5F16,-3.159580999637685
mp-1017516,MgSiP2,0.287620386428571
mp-1017508,LuTlTe2,-1.21342858833333
mp-17030,RbMo6Se7,-0.8667896613504461
mp-763212,Li2VO2F,-2.6122310398611113
mp-16608,Si3Os2,-0.46815938425000303
mp-76,Sr,0.044811709999999005
mp-754693,Lu(BiO2)3,-2.224196386666668
mp-11711,Gd(BO2)3,-3.153360601749999
mp-764525,Li3Fe8(BO3)8,-2.245533165891472
mp-6745,LiGa(SiO3)2,-2.888874676583333
mp-568792,Si5Rh4,-0.760410692222219
mp-510232,Nd12Co6Sn,-0.166787614473684
mp-3374,Nd4Au2O9,-2.769899473833338
mp-703589,K4Ti2H2O5F8,-2.765905523246032
mp-24124,NdH2ClO2,-2.400852244166666
mp-5114,K6HgS4,-1.137613183727271
mp-643658,Na3MgP2HO8,-2.603280243311576
mp-504997,NdCu(WO4)2,-2.360119415624999
mp-605835,Nd4MgRu,-0.17576083958333202
mp-767622,Li2VOF3,-2.943017773452382
mp-766139,Li2V2F7,-3.105298798787878
mp-540904,ThI3,-1.491974959374995
mp-768505,LuGaO3,-3.219932291166668
mp-540079,Ni(PO3)4,-2.173563474033613
mp-759742,LiCu4(PO4)3,-1.926531657113095
mp-768273,Gd3As5O12,-2.532309885124998
mp-541083,KPH5C2S2(NO)3,-0.978447589596639
mp-16504,HoAl4Ni,-0.5457573399999981
mp-558867,H7ClO7,-1.010857748916666
mp-6870,KBe2BO3F2,-3.171410340157407
mp-767707,Li2Fe5Si5O16,-2.534015127738095
mp-769019,Li(BiO2)2,-1.627650837619048
mp-568848,GaCl2,-1.09882738375
mp-558672,Si3Bi2O9,-2.710729046428571
mp-505747,TlIn5S6,-0.759767671805546
mp-4383,Nd2Fe17N3,-0.24419770045454503
mp-558690,ZnB4O7,-2.629095416805555
mp-557289,TiP2Cl8O3,-1.94023294197279
mp-6319,Na2MgAlF7,-3.573647912978056
mp-775218,MnNb3(PO4)6,-2.778881700170242
mp-560431,KBe(PO3)3,-2.7542307718698993
mp-626194,Sc(HO)3,-2.226094033035714
mp-1018105,Zr2Zn,-0.201094288333334
mp-28920,Tl5Se2Cl,-0.717589773919271
mp-892,ScPt,-1.227382937499999
mp-13398,Yb(MnSi)2,-0.6740550407931061
mp-680680,Sr4Ru3O10,-2.307923671470588
mp-29200,KNO2,-1.287441688062499
mp-29637,K4MnBr6,-1.786828043357366
mp-3370,Y2Sn2O7,-3.005540767272727
mp-11603,KNd2CuS4,-1.8742890240312482
mp-14526,Na4Hf2(GeO4)3,-2.680678868834153
mp-18876,K3CrO8,-1.134695215979166
mp-561083,Na3Bi(PO4)2,-2.50099527015526
mp-18741,RbLiCrO4,-2.090644955833333
mp-339,UMn2,-0.029890910287358
mp-31469,Hf5CuSn3,-0.378818996666664
mp-3785,TlGaTe2,-0.578234344791667
mp-30789,U2Mo,0.068760293333326
mp-29883,Rb3PbCl5,-2.028766747777778
mp-979910,VCuRh2,-0.32207532249999804
mp-758430,LiCuPO4,-2.175894123996598
mp-779306,Li3Fe(BO3)2,-2.40203069861111
mp-13025,YbZnPd,-0.8116259099999981
mp-5723,ZrAlNi,-0.6447182466666671
mp-862902,PmDyMg2,-0.075224409791665
mp-17031,KAlP2O7,-2.935011804912336
mp-753195,Li2WS4,-1.140345156666665
mp-708993,Na2PH15O11,-1.557997188832808
mp-684082,LiSb(PO3)4,-2.471841808994709
mp-21547,Na3InSb2,-0.525662634374998
mp-865426,YbNdAg2,-0.30850556312499905
mp-4732,UGa5Co,-0.36602410928571305
mp-644129,KNiPH2O5,-2.009573537439285
mp-571566,Li2ZnSi,-0.267694867291667
mp-850962,LiFe2(SiO4)2,-2.337529474743589
mp-772424,RbLi2V2(BO3)3,-2.600660130686275
mp-540059,Li2Ni(PO4)2,-2.193273798150183
mp-19974,In2Ag,-0.050005156666661006
mp-973785,PbN,0.661620464999998
mp-30655,Ga4Ni3,-0.406935822644555
mp-774326,Ni3OF5,-1.9953796383333322
mp-779654,Na3Nb6O11,-2.537033020456896
mp-560905,Na2NpH2(CO3)3,-2.043282564353448
mp-685151,TiO,-2.725883769166666
mp-974059,LiDyIn2,-0.48719835541666606
mp-626701,Mn(HO)2,-1.5556240300862072
mp-14704,Li6Y(BO3)3,-2.814071734342105
mp-556741,KNaThF6,-3.878805311514366
mp-13986,Li2PtF6,-2.327044650370371
mp-25907,LiSn(PO3)4,-2.501561325800264
mp-2290,NdRh2,-0.654773344166663
mp-22992,TiClO,-2.730120467777778
mp-1014,ZrMn2,-0.185062456120687
mp-21390,La2InCuSe5,-1.575460973431713
mp-28450,Li4P2O7,-2.743522603278387
mp-7050,ZrTlCuSe3,-1.092194374227433
mp-22376,PrNiSn,-0.5871159113888901
mp-770155,Li3V3(BO5)2,-2.577923281018519
mp-2091,V3B2,-0.776987983
mp-707744,K2TeH10(NO7)2,-1.332471049091954
mp-22490,Sc3(NiGe)4,-0.7390669995454521
mp-558320,K3U3Si2O13,-3.341829393416667
mp-766391,Ti(Sn2O5)2,-2.360442101555556
mp-975347,NdGeO3,-2.4914131235