material_id,formula,formation_energy
mp-9967,NdSi,-0.828679736249998
mp-17118,Y3Ge5,-0.7753190293750051
mp-707483,TiP2H4O9,-2.331133612819942
mp-2063,Pr2O3,-3.728230869166667
mp-542640,GePt,-0.48595396374999905
mp-774994,Li5Fe8(BO3)8,-2.283087546888888
mp-556137,Li2Ca4Si4O13,-3.303861107028985
mp-680646,NiSn,-0.232733851874998
mp-762880,LiCoSiO4,-2.330837103690477
mp-558708,Nd2Cu(GeO4)2,-2.669091326923076
mp-974834,EuNi3,0.18141663974999703
mp-998156,RbSnCl3,-1.760047194499999
mp-1495,ErIr2,-0.8424371300000021
mp-780800,Fe10O11F9,-1.948680055333334
mp-4529,K2SO4,-2.271758034928568
mp-771398,Li3Fe3CuO8,-1.666493389333332
mp-19237,Sr2MoO4,-2.7157154571428572
mp-607917,La21Fe8Sn7C12,-0.45204717791666704
mp-16033,Sm2TeO2,-3.278480227333331
mp-705470,Li3Mo4P5O24,-2.424595469950397
mp-779878,Na4Bi2P(CO4)4,-1.959672487968892
mp-772396,Li2Cr2O7,-1.824577836515151
mp-975364,RbCuO3,-0.6591540465000001
mp-757119,LiCu2F5,-2.076449996458331
mp-631552,SrBiB,0.829275844551266
mp-972352,YbMg,-0.075864689999999
mp-554412,RbTa(PO4)2,-2.945203001176587
mp-604725,RbMgP(H6O5)2,-1.735121456685714
mp-1018063,ErH3,-0.6434567719791651
mp-568992,ZrIr,-1.009261388750005
mp-715275,Fe3O4,-1.531273891428572
mp-777889,Li4Fe(TeO4)3,-1.775324021166666
mp-973471,KReO3,-2.08184262095
mp-11773,Nd3GaO6,-3.4508841035
mp-720644,PH9(NO2)2,-1.248827784587053
mp-554405,ZnS,-0.9607977189062511
mp-560327,Na2Sn2C3(O2F)3,-2.022750617047413
mp-24193,NaH3O2,-1.43767437564655
mp-780092,V6O5F19,-2.740233326333333
mp-4961,Na2HgO2,-1.336780317051725
mp-765150,LiSn4(PO4)3,-2.276988067863095
mp-634326,GaHO2,-1.8985905559375
mp-29584,K4BeAs2,-0.39376619128571105
mp-774248,Li4Ni3Sb5O16,-1.833020585476191
mp-11412,ScGa2,-0.609656900000002
mp-781078,Li3V2P4(HO8)2,-2.5341812589285713
mp-752605,LiAgF3,-2.011502846833335
mp-22287,NbGeIr,-0.529375719999989
mp-35208,NdOF,-4.102901809166666
mp-3719,Rb3NbS4,-1.485389006874999
mp-567855,RbGeI3,-1.030275096499998
mp-6174,Mg2Al4Si5O18,-3.330954054137932
mp-30562,Sc2Co,-0.127596688333333
mp-759544,In3Cu3O8,-1.467939466428571
mp-8406,Li3NdAs2,-1.168352880416667
mp-568883,Pr3SiSe2N3,-1.7867974277430552
mp-752755,NaSbO3,-2.019996428775863
mp-767416,K3BiPCO7,-2.170061939337912
mp-721988,NaAlSi3O8,-3.21218744587533
mp-11016,RbCd(NO2)3,-1.029932286590908
mp-689834,NiP2O7,-1.979640296178571
mp-17808,Nb2Zn4O9,-2.327878003666667
mp-752637,HoBrO,-3.319827008333332
mp-740,NdTe3,-1.144064649375
mp-568964,La3MgBi5,-0.720922373888891
mp-18966,FeAgO2,-1.213149317916666
mp-555911,TlAsF6,-2.296651909062499
mp-771131,NdZrO3,-3.4495078855
mp-605691,La2P3H7O11,-2.259939006855589
mp-4324,Tm2CdS4,-1.9535404828571452
mp-23780,Na3H(SO4)2,-2.064195043420565
mp-623984,PbSO4,-1.8659368729166652
mp-770854,Li10Fe3Sb7O24,-1.966037415530303
mp-765712,Li4FeNi3O8,-1.601898152083333
mp-27653,LiAlH4,-0.21714912652777701
mp-541299,Zr4Cd(PO4)6,-3.11002841622449
mp-20867,Eu(AlGa)2,-0.489557803000002
mp-569526,RbCuCl3,-1.4347069325000001
mp-11754,Sc6Te2Os,-0.712972387037037
mp-766269,ZnPH5C2N4O3,-0.9531351020870541
mp-16337,Ga2HgTe4,-0.368972043928571
mp-560616,KCO2,-1.9003165855625
mp-28954,Tl2PdSe2,-0.446582548624996
mp-560831,Na6P4Pb3S16,-0.963014449891284
mp-23086,ErSeClO3,-2.495219490390624
mp-600216,U2Se3,-1.459530678406241
mp-756241,PrBiO4,-2.403409196111112
mp-771005,LuTa3O9,-3.48504642105128
mp-5407,TiAlCo2,-0.6043146191666661
mp-18427,Nb2Al,-0.345805192333333
mp-10873,ScAlAu2,-0.705044028749999
mp-27400,RbCdBr3,-1.560353950499999
mp-770850,Li2TiCo2O5,-2.197114999
mp-769792,Li4Fe5CoO12,-1.667477845606061
mp-643788,Na2Sn(HO)6,-1.527179706350574
mp-504957,RbReCl4,-1.519241968888886
mp-754238,Li2CuBiO4,-1.543059442083333
mp-1019101,SmGeAu,-0.836434029999997
mp-5246,KNbO3,-2.851774280450001
mp-864916,Hf2TcRh,-0.855599377500006
mp-632667,YbH2,-0.45304338583333204
mp-974920,Na,0.012510683448275
mp-2137,Mg2Ni,-0.15303366444444402
mp-15605,ScSi3Ni2,-0.6287943299999991
mp-541201,TlCuPO4,-1.919917295068028
mp-36903,KNO3,-1.414639042449999
mp-12716,LiTlPd2,-0.414281964166665
mp-775978,Na4Sb2C4SO16,-1.868545164185823
mp-560501,Tb3CuSiS7,-1.821600580624999
mp-560032,NaNb2AsO8,-2.5742503603232763
mp-704946,Fe2P4Pb3O16,-2.352073547942856
mp-764715,V2OF5,-3.002118150625
mp-662547,PSeCl9,-0.533182666094426
mp-28121,La3ReO8,-3.295554232291666
mp-555318,K2Zn(SiO3)2,-2.734427540409092
mp-672644,KNO3,-1.3778487009499991
mp-1019784,K2SN2O5,-1.41656652495
mp-770237,LiMnPCO7,-2.181572227582475
mp-569037,Y3H2,-0.461271010500001
mp-722455,RbLi2(H2N)3,-0.534164239305555
mp-973024,La3Hf,0.198070811249998
mp-1018892,PrCoSi,-0.631683528888887
mp-34022,Mg2SnO4,-2.6629976021428563
mp-7818,Pd4Se,-0.16782736481249802
mp-753958,GdAsO4,-2.709864431249999
mp-557437,KBi(PS3)2,-0.81036056915357
mp-21025,Nd2Cu2O5,-2.454337211666667
mp-695398,Na3PH24SO15,-1.265519870597291
mp-572291,K3ClO,-1.639030035849999
mp-975663,Pr(CoB)4,-0.43311157592592603
mp-571068,K3(Mg10In7)2,-0.071768424731981
mp-14168,K2GeF6,-3.031289993277775
mp-973343,Li2MgHg,-0.24736783854166802
mp-612740,In2Se3,-0.686687467770832
mp-505343,U(CoB)4,-0.40266759740741004
mp-6696,K2Ti2(PO4)3,-2.966227941320802
mp-10993,ErCuAs2,-0.9088039158333351
mp-677337,H12C4S3(N3Cl2)2,-0.264874379396551
mp-759638,Y5Tm11O24,-4.044683666250002
mp-764845,LiVOF3,-2.97272118138889
mp-4199,Na2S2O3,-1.732220544679802
mp-29394,Gd2CCl2,-1.714535420999999
mp-29975,K3BS3,-1.245374226202379
mp-753342,LiCuF4,-2.070476225777781
mp-4103,Sr2Sb2O7,-2.570062335909088
mp-981512,YbLuPt2,-1.414579977916659
mp-756339,Tm2TeO6,-3.002165471296297
mp-11444,YGa2Ni,-0.6438635449999991
mp-20296,In2Co,0.07621733666666501
mp-554278,TiO2,-3.501638054444445
mp-6599,KNb(CuSe2)2,-0.9648636458281241
mp-34291,Zr3InF15,-3.7696306531578943
mp-12962,Zr6FeSb2,-0.5634966222222201
mp-568828,Hg6BiSb4Br7,-0.629478104027778
mp-985594,NaAg(CO2)2,-1.469169655380747
mp-861947,LiPm2Ga,-0.35088958541666304
mp-4007,Nd(SiNi)2,-0.783672959499988
mp-3569,Nd(Sb3Os)4,-0.23282902867646602
mp-567539,MgGa2,-0.102973440416666
mp-15974,Mn(CrS2)2,-0.9847224804187181
mp-971712,ZnCdS2,-0.8494902226562481
mp-752676,TiBi2O5,-2.371655990416668
mp-561547,SrSiO3,-3.4051990275
mp-20819,ErGePd2,-0.9152717387499991
mp-861894,Li2LaSn,-0.49024710416666606
mp-772131,Li3Fe3SbO8,-1.905005969999999
mp-10339,SrNbO3,-3.180447969
mp-14039,K2NaRhF6,-2.63281606158793
mp-978281,Mg3Ga,-0.06213509312499901
mp-11347,TbF3,-4.50274268625
mp-778661,LiCu5(PO4)2,-1.63259851610119
mp-8154,La2Ti2O7,-3.775860681969699
mp-862964,PmSmMg2,-0.08959694062500001
mp-12673,Lu2SO2,-3.6290922981666682
mp-770696,Mn7(PO4)6,-2.468798889820931
mp-861993,Ho2TlAg,-0.32988803374999803
mp-22801,LuSiRh,-1.16640589222222
mp-13282,Sm(ErSe2)3,-2.1723017229374992
mp-754605,LiLuO2,-3.38577283375
mp-753846,Mg(GaO2)2,-2.511325247142857
mp-16610,Ge3Os2,-0.08410202074999801
mp-6134,LiCaAlF6,-3.870292022592592
mp-30085,ThZr2H7,-0.526538632839293
mp-1527,TbCu2,-0.26697835333333303
mp-641565,Er5Sb3,-1.014936598645835
mp-989518,Rb2SBrCl6,-1.16344676575
mp-22199,KIn5S8,-0.9310848278988071
mp-770527,Li2Mn4O9,-1.9016174852260541
mp-865531,TiMn2Al,-0.33561966979885105
mp-4323,Nd(SiPd)2,-0.915855471499999
mp-756173,Li5FeS4,-1.2668583406666651
mp-1365,Ti6Ge5,-0.7022925877272731
mp-972965,GdF3,-4.1566355175
mp-24507,Na6Zn3P4H6O19,-2.198912545377559
mp-555595,KCu3S2ClO9,-1.561990052796875
mp-12924,KLaSiS4,-1.691114057142856
mp-6032,SrSi2(BO4)2,-3.207356374102564
mp-989400,Rb2NaGaF6,-3.07613155538793
mp-861988,PrAgHg2,-0.35452353958333904
mp-569606,Nd3MnBi5,-0.531357585603449
mp-975308,RbGdO3,-2.3090469385
mp-627291,V3(H3O5)2,-1.7700825153947362
mp-568066,Pr2CBr,-1.001755945833332
mp-862264,Sc2ZnTc,-0.30458715874999903
mp-999052,Ti2MnAl,-0.250023836149425
mp-984454,KTlO3,-0.7949232771166671
mp-695582,Na3Sr4La3Ti10O30,-3.478862383449426
mp-540737,ZrP2H4O9,-2.074121138080358
mp-505381,NaLi3(H2N)4,-0.557440299461206
mp-631,TiC,-0.965351713333333
mp-557724,KBiF6,-2.52281441778125
mp-757383,LiSiBiO4,-2.461239497976191
mp-21767,Si2Pb3O7,-2.415327059444444
mp-753437,La5Cu5O13,-2.511112312608697
mp-581229,Gd2Ge2O7,-2.995165451969698
mp-1007660,IrN,0.358189150000001
mp-3334,Tm2Sn2O7,-3.032940869545466
mp-865117,NaErTl2,-0.20958111451149802
mp-772390,LiAlFeO4,-2.272178853333333
mp-5830,Na3AsS3,-1.010759029419643
mp-6491,Na2ZnP2O7,-2.546457344545361
mp-778325,Li2TiV3O8,-2.707522738214286
mp-752579,Tm2TiO5,-3.914610188854153
mp-24041,MgH2SO5,-2.054308188333334
mp-22372,Mn6Ni16P7,-0.42583256034779804
mp-625112,H8PtO6,-1.139853136666666
mp-643579,SbH3OF6,-2.167920459431819
mp-1009128,MnN,0.396351690571119
mp-867137,ScVRu2,-0.45831425124999203
mp-560476,Rb3NaTiO4,-2.3593868152458493
mp-561355,TiSCl6O,-1.610938900925925
mp-569471,UB2C,-0.45123014708332504
mp-510546,Sr2CoMoO6,-2.475307321000001
mp-9191,Na3SbTe3,-0.807837148448274
mp-541830,UCo5Si3,-0.46827940222222103
mp-979940,Yb3Zr,0.148657124999992
mp-754937,LiTi3O6,-3.291512927333333
mp-684723,TiNb2Zn(PbO3)4,-2.358109784666665
mp-865091,HfMnRh2,-0.887145171120689
mp-644486,KAlH4,-0.271167673125
mp-675693,Na2CdO2,-1.455973666051723
mp-764115,V3O7,-2.2642393215
mp-753548,Rb6Ti2O7,-2.477761884444444
mp-29269,NaSbF4,-2.829796081479885
mp-685272,InSnBr3,-1.034246850708332
mp-605873,Pr4MgRu,-0.152073027777779
mp-569196,YNi3,-0.38444531666666504
mp-9249,NaGeAu,-0.34725840166666905
mp-22515,Rb2CuPb(NO2)6,-0.926130674772727
mp-775265,Li2Mn3F8,-2.968309259266136
mp-559653,SrCa(CO3)2,-2.684146306499999
mp-974371,Rh3Br,0.551899858749999
mp-1651,Th2Al,-0.26241455999998603
mp-642996,Li4H6Os,-0.490672975378788
mp-28667,Ta(NiTe)2,-0.5362470501333321
mp-560711,Sm10S14O,-2.4722702253
mp-776780,Li4Ti3Cr3(SnO8)2,-2.6631625072619043
mp-5346,Lu(CuSi)2,-0.520039041333333
mp-977200,Na3C,1.064512525711206
mp-19359,NaFeO2,-1.797874432844827
mp-865485,V2CrOs,-0.324751372499999
mp-22996,SbSeI,-0.60188073578125
mp-570935,LiI,-1.422324364166667
mp-567313,Te,0.000981610000001
mp-976128,Hf5Sc,-0.002125777500002
mp-571464,RbPSe3,-0.8051613375014881
mp-753654,LiSnPO4,-2.379304036139455
mp-1019275,TbCuSn,-0.5660282255555541
mp-766058,Na(Fe2O3)4,-1.601650034351395
mp-21113,Y(FeGe)2,-0.45121991999999406
mp-979294,SrAgO3,-1.386157267333332
mp-540431,Li2Fe5(PO4)4,-2.352971154268077
mp-777396,Li2Mn3FeO8,-2.004034529675697
mp-555403,K3WF6,-2.8451750771749973
mp-556060,NdTeBrO3,-2.3238339965277772
mp-753955,K3H8RhC4(ClO6)2,-1.5321539063916672
mp-865427,KSrCO3F,-2.781222280321429
mp-505131,LiVCuO4,-1.960942226904761
mp-865194,TmF3,-4.181989037499999
mp-683902,Rb3Nb2AsSe11,-1.038247646810662
mp-556785,RbTeF5,-2.735651612559523
mp-5141,Na2SeO4,-1.750063777157477
mp-683891,MnSb6(Pb2S7)2,-0.6463465379172401
mp-15740,SrZn2(AsO4)2,-2.129064480961537
mp-569129,TlCuPSe3,-0.47757952875124104
mp-707532,NaH8SeNO6,-1.19286500183665
mp-862373,ScS2,-1.495295626510416
mp-764941,Li3Fe8(BO3)8,-2.25220907868217
mp-850412,Li7TiCr3(PO4)6,-2.649301476939605
mp-758270,Li3Ti(PO4)2,-2.8032638016156453
mp-9775,NaSrAs,-1.054213939722223
mp-558183,MoS2N2Cl5,-0.7019046200000001
mp-21221,Pr(FeGe)2,-0.423533346333326
mp-556735,Rb2Bi4O7,-1.692790581826923
mp-752835,Li2Cu2F5,-2.276803688148147
mp-22164,PrNiSn,-0.604733643055555
mp-571270,NbSe2,-0.9589825927083331
mp-686466,Pr16Si16N27Cl3O14,-2.191414984429823
mp-19464,Na5Lu(MoO4)4,-2.330620524560125
mp-770628,Li2CrO3,-2.234609702777778
mp-642648,KP(HO)2,-1.62216268989881
mp-32833,Ho6Se11,-1.9085931538051462
mp-978288,MgNi,-0.12345870916666601
mp-690546,TiNiO3,-2.578309968333334
mp-865188,MgH8(ClO6)2,-1.123647846304347
mp-558396,Rb2Te(H6O5)2,-1.426026749666666
mp-721158,Mg2P2H12O13,-1.916428560061577
mp-2649,Zr5Sb3,-0.7659680518749991
mp-27923,TbCl,-1.674011193749994
mp-763059,LiV(CO3)2,-2.044740703333334
mp-643026,SrH4(ClO)2,-1.807296567222223
mp-777463,Li2FeF6,-2.608738767407407
mp-639811,KIrO3,-1.509878323783333
mp-22522,ZrCuSi,-0.644550211666667
mp-684427,LiSb(PO3)4,-2.502051030383596
mp-554523,TeBrO3F5,-1.561555379416667
mp-978501,Si3Se,0.643814000703123
mp-771660,MnP2O7,-2.383533998471674
mp-756861,LiLa4Ti3O12,-3.648766051166666
mp-570948,LiCaGaN2,-0.840424472166667
mp-29723,LaB2Ru3,-0.41492621888889003
mp-571584,LiMgSbPt,-0.595307529583332
mp-763350,V3O5F,-2.604892315555556
mp-770754,Ho(ClO4)3,-0.9835183068749991
mp-755264,TiO,-2.827090324166667
mp-850910,Na6V2As(CO4)4,-2.043279393819857
mp-675073,Na4PtO4,-1.358433314501915
mp-14708,Tm2Ge2O7,-3.085245870681825
mp-29291,I2(OF2)3,-1.458746625681818
mp-570000,K3Mo2Br9,-1.4216139697678551
mp-767589,LiVF5,-3.020439102976191
mp-976426,LiLuHg2,-0.47080882958333303
mp-27283,TlPb2Cl5,-1.513733287291666
mp-867177,PrCdHg2,-0.47901372666666403
mp-27740,NaNp2F9,-3.8701524929166693
mp-27339,Sb2(SO4)3,-1.783571731911764
mp-569018,Mg3Bi2,-0.17866593899999803
mp-973626,Hg3Au,0.115798553229168
mp-626412,In(HO)3,-1.547914223630952
mp-676378,Sr6Ta2O11,-3.205377071298245
mp-972439,Zn3(PO4)2,-2.3335193772527463
mp-18727,LiCr(SiO3)2,-2.924579158083332
mp-1009735,ReC,0.225445643125006
mp-505803,MnFeAs,-0.138321290143679
mp-999307,OsN,0.4496431375
mp-861665,LiTmIn2,-0.463767529166666
mp-694881,NaNd3Ti3MnO12,-3.370264806340517
mp-776567,NaTi2(PO4)3,-2.981852458859696
mp-555344,Hf2P2O9,-3.397889916483517
mp-555363,Na2Cd(SiO3)2,-2.615739305099268
mp-770720,Li4ZrO4,-2.649295501481481
mp-1018782,Li3YBi2,-0.8046964016666651
mp-770862,Li2Cr2O7,-1.858383299696969
mp-28109,SbAsO3,-1.697553925999999
mp-752538,KSnO2,-1.8925737118124992
mp-16356,TiNiGe,-0.6761965602777771
mp-851033,LiCo3OF5,-2.205557859583334
mp-11919,Sr(BeN)2,-1.197968177
mp-754009,ScBiO3,-2.783797551
mp-20848,TmIn,-0.5408335000000011
mp-555978,Sm3CuGeS7,-1.746015828541666
mp-758316,La10Bi8O27,-2.894281256777777
mp-976113,LaAu3,-0.6680701387499971
mp-253,ScCo2,-0.272585656666668
mp-707900,PrH20S4N5O16,-1.360501337971014
mp-505351,Na3(FeS2)2,-0.8513578154597691
mp-770469,Li5TaO5,-2.625739340363637
mp-35714,La5TlS8,-2.269697551309522
mp-1919,ZrCr2,0.18844157249999902
mp-989647,YReN3,-0.8778761112500001
mp-23167,TlCl,-1.324511156666668
mp-990441,H2O,-0.33214351541666604
mp-775438,V2OF5,-3.042675195624999
mp-644223,LiBH4,-0.401481665416666
mp-14928,Sc2MnSe4,-1.695832585818964
mp-559126,NaZr2CuF11,-3.467506669091953
mp-31421,PrAgSn,-0.613051211111108
mp-554395,Na5Li3(TiS4)2,-1.510024561864623
mp-3070,Na2CO3,-2.064169683168104
mp-642428,Y3Al19Ni5,-0.500113050185184
mp-14161,Sr4Al6SO16,-3.281709876574073
mp-647347,Np2InPt2,-0.9423733764999951
mp-8467,YNiGe3,-0.570614412999999
mp-672696,Hf2Nb3Ge4,-0.63167856861111
mp-581913,Sr11(Ge2N3)2,-0.7008211702380951
mp-573568,K2TcI6,-0.9710711660555541
mp-865431,YbZnAu2,-0.698349319999998
mp-20982,K3Cu2F7,-2.455987015562499
mp-23704,NaAlH4,-0.21267999916666602
mp-675250,KBi2F7,-2.750856417725001
mp-23730,NaMgH3,-0.29704166152586103
mp-31012,K2(NbBr3)3,-1.508595819607144
mp-998973,TiFeCoSb,-0.35177621333333303
mp-504594,ZrBr,-1.2709659325
mp-699447,RbLiH4S2(NO3)2,-1.457498296614582
mp-1008642,UC2,0.405466175416663
mp-31614,Li3Co3(PO4)4,-2.258349140714286
mp-561015,Y9C4I8O,-1.225750696818182
mp-546350,TmBi2BrO4,-2.428541616875002
mp-14635,Rb2VAgSe4,-1.103068673880207
mp-764648,LiTiO2,-2.9499596316666663
mp-558836,MoF6,-2.605596452857143
mp-977188,Li3Dy,0.21250930749999902
mp-977463,MgMnRh2,-0.316020983232757
mp-1425,TiCr2,0.083971022777776
mp-560603,Na2MgSi5O12,-3.050280072137931
mp-976114,Li2CdHg,-0.325240707708335
mp-775215,Li10Cr3Fe3(NiO8)2,-1.9852647477450982
mp-27998,KNb3O8,-2.986958873937498
mp-780877,Li2Mn3(BO3)3,-2.450191474291751
mp-3556,Tm2SO2,-3.622715177500004
mp-417,MnRh,-0.49576254724138
mp-768027,Na2MnPCO7,-2.302266687111042
mp-770380,Ta3InO9,-3.035498554128206
mp-765538,Li3Co2NiO6,-1.658954482499999
mp-504864,YCu(WO4)2,-2.372273168333333
mp-865746,GaTc2W,-0.174587085000002
mp-757001,Y15TmO24,-3.96091708125
mp-570042,PrAlPt,-1.024592158888887
mp-779090,VO2F,-2.396497939166666
mp-999203,ScC,0.017134829142857
mp-776226,Hf2N2O,-2.528049211999999
mp-3037,UTeO,-2.399632922222223
mp-541975,Rb3Ta2S11,-1.203800506072904
mp-570554,Tb(PRu)2,-1.038548817190479
mp-552089,Sr2Cu3O5,-1.8400379805000011
mp-29149,Li4NCl,-1.018106857986112
mp-8539,SrSnP,-0.8504571709920631
mp-769561,Li4Mn3Fe3(NiO8)2,-1.7200155552545162
mp-625147,GdHO2,-2.936812904062501
mp-12742,MgPd3,-0.48861777374999005
mp-631561,ZrAgMo,0.9523461230555531
mp-27125,Na6MnCl8,-1.9537926802988501
mp-685878,Mg9(In13S24)2,-1.022859815040159
mp-19185,Mn3(BO3)2,-2.4361777151933133
mp-740722,Na3GeH11O9,-1.525134905068248
mp-531661,Nd10Ti12O39,-3.551977940163934
mp-601371,GdSi,-0.7704727649999991
mp-760762,NbOF3,-3.292822406999999
mp-865319,Tm2CuRu,-0.403783090000001
mp-22144,Ta2InC,-0.43782925116666105
mp-191,YRh,-0.8306932600000001
mp-569571,Nb3Sb2Te5,-0.644887052833331
mp-559053,NaY(SeO3)2,-2.179030475856692
mp-561442,Y2Hf2O7,-3.989558998636363
mp-768348,Sm(ClO4)3,-0.9900822178125
mp-867940,Rb2U2O5,-2.9785847222222213
mp-972639,SmDyIr2,-0.7344183241666651
mp-775197,Mn3Nb(PO4)4,-2.5887252067651882
mp-31311,Ga9Ir2,-0.32476801545454503
mp-758240,LiTi(PO3)4,-2.707362625291005
mp-29763,RbMnBr3,-1.531377246086207
mp-17064,Gd2Sn2O7,-2.995185214545452
mp-676038,Ga5(PS)3,-0.633748253851461
mp-13218,YMg2Cu9,-0.16544268791666703
mp-865592,Y2ZnRu,-0.337626422499998
mp-626282,Sr(H8O5)2,-1.378670822037037
mp-24992,FeHO2,-0.9913314440624991
mp-774414,Ti3Mn(PO4)6,-2.67631454399377
mp-22971,SbSBr,-0.7882413033333321
mp-765697,Li2TiFeO4,-2.559184923124999
mp-770726,Li9Al(CoO4)2,-2.0701116495
mp-1589,TiCr2,0.10190197944444401
mp-865534,YBr2,-1.890311351666666
mp-865262,TmTaRu2,-0.45807925183333204
mp-557472,K2Be2(SiO3)3,-3.068816304031251
mp-8357,UTe3,-0.8114933574999981
mp-974641,K3Tl,0.029719731229165002
mp-756427,Li5SbS4,-1.219773292666666
mp-769713,Na4B4Sb2SO16,-2.323136091469774
mp-977425,Ta2CrRu,-0.254652972416664
mp-540784,Rb2Ti6O13,-3.3320984680952392
mp-865215,TmHfRu2,-0.629760687499999
mp-2553,HfBe2,-0.170745116666664
mp-978986,Sr(GePd)2,-0.7128949359999991
mp-558277,Ti3(BiO3)4,-2.542993825000002
mp-20208,Sm(Sn3Ru2)2,-0.33413753681818104
mp-560772,Mg2B2O5,-3.01318361425926
mp-582648,RbRe3Br10,-0.9588292546428571
mp-769763,Li5Cu(HO2)2,-1.723956205138888
mp-19449,NaVCdO4,-2.121421460911329
mp-569745,YbMgSn,-0.518235147777779
mp-651688,Si4Ag10O13,-1.5733835333950612
mp-17043,Tm2ZnS4,-1.965646147678573
mp-4676,La3(B3Ru4)2,-0.44586752058823403
mp-28871,In3SnI5,-0.683057732499999
mp-779920,Gd2W2O9,-2.85736069673077
mp-18147,LiGaSiO4,-2.785973274166667
mp-753860,SiBi3O7,-1.985984405909091
mp-13798,K2NaTlF6,-2.693568741921265
mp-541067,HgNO2,-0.563891579375002
mp-631572,GaReAs,0.9276726375000001
mp-867915,ScGaCo2,-0.349506956250001
mp-15002,Sr2CaIrO6,-2.5457749655
mp-28856,Na7Au5S6,-0.9059972015086201
mp-557600,SbC2N(OF3)2,-1.9342346950000002
mp-23442,KCdCl3,-1.6690854362499992
mp-976414,Li3Zn,-0.08503013874999901
mp-980034,Yb3Mg,0.040962399999994
mp-757394,LaTi6O12,-3.448372656052631
mp-32564,NdO3,-1.943886155625
mp-5079,KSbF4,-2.872325874124999
mp-559489,K2ZrSi2O7,-3.186144017249999
mp-867158,SmCd3,-0.266570493749999
mp-1515,ZrSi2,-0.6571695349999991
mp-23800,KHSO4,-1.956084613178582
mp-978100,Pr2InAg,-0.353992265416664
mp-684934,U5O11,-3.612468664687497
mp-14607,KSbO3,-2.030736122783333
mp-770296,La4Zn3O9,-2.996251845
mp-567317,Nd(AlGa)2,-0.510554783499998
mp-760417,Rb4I2O,-1.497929806428573
mp-974708,NdTmTl2,-0.330607878541674
mp-1006099,Lu(BRh)4,-0.629475462129635
mp-19068,TmVO4,-3.216402385833336
mp-972659,SmCoSi3,-0.623150037000001
mp-973826,LiHoSn2,-0.39757147958333106
mp-675593,K3(VS2)5,-1.270736268152777
mp-20910,LaGe3Ir,-0.728472996
mp-752948,LiAg2F4,-1.675338534166666
mp-20262,Pu3Pb,0.230489855937509
mp-12171,K6MgO4,-1.5719714466818182
mp-767753,Li2Fe2Si8O19,-2.88548344392473
mp-4156,Li2ZrO3,-3.040215971111112
mp-769702,LiMn4O8,-1.920449748850575
mp-9392,Sr4Al6TeO12,-3.351497833333332
mp-769277,Yb2TeO2,-3.320534887500002
mp-684690,Sc2Se3,-1.927741243437501
mp-862673,LiY2Ru,-0.244852593333332
mp-690617,LiMn3Al2(HO2)6,-2.048751003942768
mp-13171,YMgCu,-0.190149018333331
mp-29392,Na2TiCl4,-1.828190173303571
mp-20531,NdCoGe,-0.598366772499992
mp-625998,LiHO,-1.77472608986111
mp-558323,SrBi2B2O7,-2.496932166805556
mp-28980,K3BiSe3,-1.145052701611606
mp-776118,Mn3FeSn2(PO4)6,-2.375623437268062