material_id,formula,formation_energy
mp-759871,LiBi(PO3)4,-2.4941712464947092
mp-878,Ho2S3,-2.376410549020833
mp-763933,Li3CrFe3O8,-1.9181204356666672
mp-11714,SiC,-0.305645473749999
mp-554951,GaH20C2S2NO14,-1.2188396520625
mp-17207,Tl4GeS4,-0.63313192814815
mp-978993,Th3S,-0.198747253203116
mp-697772,Li3V2P5O18,-2.596221737257653
mp-9205,KSeO2F,-1.9342845829187492
mp-11695,Rb2Pd3S4,-0.951047283888884
mp-707310,K2Zn3P4(HO3)4,-2.067547075622857
mp-542486,Sc3(Si2Ni)2,-0.8102671863888891
mp-777041,Li4Mn3Co3(SnO8)2,-1.9012417422188022
mp-642332,Nd11In9Pd4,-0.568793388020832
mp-690578,Nb2SiTe4,-0.46568864095238105
mp-998535,InPbCl3,-1.131375050249997
mp-15651,NiSe,-0.32913280119791705
mp-3337,Ti6Si7Ni16,-0.686153449999999
mp-557354,Tm2Te4O11,-2.313014958627451
mp-696396,NaHCO3,-1.849653167521553
mp-6992,Eu(NiAs)2,-0.714755989999999
mp-570707,NdSe2,-1.887452508541666
mp-15359,GdAl3(BO3)4,-3.239803282333334
mp-28286,Na3Sb5F18,-2.779495105928381
mp-779343,LiMnF4,-2.872662029377394
mp-540223,Li2MnP2O7,-2.649604056990284
mp-758235,Na2TeH5SO10,-1.545787174114488
mp-759001,Mg2Cu2P2(H4O5)3,-1.7903260654329
mp-975656,Pr2NiIr,-0.39520574083333304
mp-18500,K3Sn4Au,-0.336079271468747
mp-781677,Mn3(O2F)2,-2.137657973199233
mp-776747,V3Fe2Te(PO4)6,-2.458721070681216
mp-770043,Li4Ti2Cr3Co3O16,-2.200200607857142
mp-676109,Li3InCl6,-1.872351807666666
mp-569895,EuCl3,-2.125660104375001
mp-570668,LaSe2,-2.025149987708332
mp-568357,K4La6OsI14,-1.59832189156
mp-14531,NaNb3O8,-2.935651058031608
mp-695892,KH(IF6)2,-2.12632346303125
mp-676227,Nd2Th2O7,-4.032699879090908
mp-9344,TiTlCuTe3,-0.6743097169444441
mp-553243,YBi2BrO4,-2.398279179375002
mp-570102,HoSiRu2C,-0.596599442999999
mp-976944,Li5Mg,-0.014822583055555002
mp-2449,NbRh3,-0.49944898125000103
mp-775133,Li4Ti3Fe3(WO8)2,-2.49144564797619
mp-17488,Tl2Fe3S4,-0.5902545268518521
mp-753816,Na6MgO4,-1.7080550043887142
mp-8840,Na5InO4,-1.6664419883563202
mp-15724,KNa2Sb,-0.580791710937498
mp-1150,URh3,-0.7106769712500021
mp-697047,Li3H4Rh,-0.48679786437500006
mp-1018071,MnFe2Ge,-0.110015218232758
mp-605166,KDyH2C2SO9,-2.143843279307291
mp-675098,SiH2O,-0.6472227768750001
mp-778858,Na6Mn3(PO4)4,-2.471333386401393
mp-9332,KGaPO4F,-2.717120060861606
mp-626173,HoHO2,-3.011219210312498
mp-19991,SrIn4Pd,-0.44093887111111
mp-505372,Np(BH4)4,-0.197959795892858
mp-555428,Sr5(ReO6)2,-2.874758189122808
mp-780883,Mn3(OF2)2,-2.5272831987547892
mp-774964,Li2CrP3O10,-2.623973039255951
mp-850083,Fe4S5,-0.7252702374999991
mp-710,SmP,-1.8091348239880922
mp-972978,ScVO3,-2.525851478
mp-504943,KNaP2H2O7,-2.338919022531925
mp-975577,K3La(AsO4)2,-2.413142842982143
mp-627632,Si4H2O9,-2.826755404500001
mp-762679,V(TeO3)4,-1.538538349803922
mp-978987,SrGe3Pd,-0.552342466999999
mp-19844,Na(FeSb3)4,-0.21285634831642802
mp-29740,Tl(ZnSb)2,-0.031978649952384
mp-30669,ThGa,-0.609086468749999
mp-42,Ta,7.669666661058728e-06
mp-20822,TbMnSi,-0.638380974827588
mp-10096,Na3Sr3GaP4,-0.772180782291759
mp-706269,MgNb5O9,-1.815541194000001
mp-989579,Rb2LiTlCl6,-1.799548220166667
mp-723093,Na5H29(IO12)2,-1.258707849219109
mp-12974,Pr2CdPd2,-0.7131948326666661
mp-973109,NdYIr2,-0.6553158668749991
mp-6333,NaIn(SiO3)2,-2.797347585304598
mp-4164,Nd2Co14B,-0.076041646470588
mp-28022,Na6CdCl8,-1.9852817192183911
mp-766505,RbH2O2F,-1.598435022499999
mp-978086,PrMo3,0.5669050187500021
mp-18900,MgV2O4,-2.619252364285716
mp-999576,Mn2SiRu,-0.440152907241378
mp-17861,Tm3Sb,-0.657449509687502
mp-504600,NaH4ClO2,-1.458138004547413
mp-14107,NpF3,-4.007879197187499
mp-973066,ScGeRh2,-0.8401895274999981
mp-18136,UTl4C3O11,-2.03212675254386
mp-978854,Sr(GaH)2,-0.475335449499997
mp-557539,MoF3,-2.547664713749999
mp-30641,Y6Fe23,-0.032771959310345
mp-755216,TmBiO3,-2.812053290000001
mp-758810,LiBi2P3O11,-2.420452006309524
mp-12701,NdSn2,-0.6387132791666681
mp-554203,Li4Ga3Si3ClO12,-2.735295863949276
mp-568621,Mg8BRh4,-0.41700417724359
mp-570181,Np3Se4,-1.378735340803571
mp-605344,ZnH4SeO6,-1.315136836028646
mp-560685,K2Ge(IO3)6,-1.157772099981482
mp-505284,Pb3(BrO)2,-1.46257496
mp-764476,Li4Fe7(OF7)2,-2.5287019275308653
mp-14018,K3As,-0.30332327731249903
mp-558240,K3Al4P2O8F9,-3.377624184270604
mp-996959,LiAuO2,-1.237119229583332
mp-989547,Rb2NaInCl6,-1.9831410013045971
mp-569743,Ti4MnBi2,-0.267303283037766
mp-7441,KP,-0.536587557113094
mp-780436,Li8Mn5Fe3(BO3)8,-2.439039663326149
mp-29790,U3Te5,-1.12975239437501
mp-5161,Sm(GeRh)2,-0.895188823
mp-20539,ScIn3,-0.384741196250001
mp-755570,Li(NiS)2,-0.7900516776666661
mp-18224,Rb6Ge2O7,-1.984542681666666
mp-865490,V2CrFe,-0.1609811425
mp-772432,FeH4(SO5)2,-1.520931173529411
mp-780586,LiCoP2O7,-2.3111948288744593
mp-862262,LaCdHg2,-0.44535481250000103
mp-667374,NaAlSiO4,-3.139978959720853
mp-32309,Sr4Re2NiO12,-2.625762139868422
mp-24267,ZnP4H16(NO8)2,-1.6855237307326
mp-568379,KInSnSe4,-0.9416479674345231
mp-705497,Ga2P2H9NO11,-1.7196093351214272
mp-773165,Li4Co5CuO12,-1.461822857878789
mp-759728,Sb7(O2F3)3,-2.234122542272727
mp-7085,Tm2FeC4,-0.314104984999998
mp-2883,Sm2Sn2O7,-2.999128691818181
mp-555837,Rb6Si10O23,-3.012579718205121
mp-571442,YI3,-1.710965791249998
mp-669348,NbTeCl9,-1.447487451515151
mp-1014257,Ti3ZnN,-0.9711554270000001
mp-29090,Rb4Au6S5,-0.817548776499999
mp-556812,SiO2,-2.977546089444444
mp-780199,Li5Mn6(BO3)6,-2.476596609978654
mp-673645,Mo7S8,-0.649492895833333
mp-30882,TiZn2,-0.19797383111111103
mp-980197,YbErPt2,-1.3883567120833291
mp-1016829,MgRuO3,-1.455940119999999
mp-989589,LaMnN3,-0.842123075146551
mp-770423,Mg2Mn3O8,-2.246023489522547
mp-973779,Nd2CdHg,-0.377544856874998
mp-639874,Ta2Al,-0.12393910155555302
mp-769653,Li2TiFe2O5,-2.3326630835
mp-559530,Ti5(PO5)4,-3.132662160525444
mp-667338,PbN6,0.418739402619045
mp-778369,V3OF11,-2.867432351333334
mp-1019893,La3Si6N11,-1.5705272108125001
mp-21033,La(GePd)2,-0.857302337000002
mp-771478,Mn3Fe2P6WO24,-2.37848803643473
mp-977014,H5PbCI3N2,-0.5235502388541661
mp-10474,NaPF6,-2.9074881047470242
mp-677001,SrAl7Tl5Si5O24,-2.794470957539684
mp-972216,Sr2SmSbO6,-3.0583942715
mp-972472,SnAs3,0.359640200520836
mp-669648,Ho6Mn23,0.032009994792411005
mp-559977,KNd(PO3)4,-2.912668551295634
mp-20023,PrIn,-0.6182786558333321
mp-866181,Li2NdIn,-0.41112519270833303
mp-764273,Na2LiMnPCO7,-2.373112956051218
mp-864717,PaCu2Sn,-0.11853315749999901
mp-676333,Ga11NO15,-2.106118374537037
mp-38070,Rb(TeO3)2,-1.637437328425925
mp-19000,VPO5,-2.480132212091834
mp-27919,Ti8C5,-0.8287010371794871
mp-559434,Tb(BO2)3,-3.172381031916666
mp-554783,KUN3O11,-1.699957139203124
mp-684497,LiBi(PO3)4,-2.532559033578044
mp-762268,Li3V2O6,-2.414965563636364
mp-17673,Lu3O2F5,-4.402869626500001
mp-754061,Na3SnPCO7,-2.213801620675445
mp-6684,NaCdPO4,-2.38876374228888
mp-778751,Mn6O5F7,-2.4029586970881223
mp-4387,SrZrO3,-3.661658828500002
mp-557264,SiO2,-3.261632047083333
mp-978496,SiB4,0.24630186775000001
mp-759244,Li12Nb14ZnO42,-2.874823608115943
mp-16723,Y3Al2,-0.3856520915
mp-1016876,ZnSiO3,-2.114321977000001
mp-24546,MgH2(SeO4)2,-1.474973943629807
mp-27539,La2ReO5,-3.26176853218751
mp-777897,Li4Ti2V3Cu3O16,-2.265666790714287
mp-11719,K4ZnP2,-0.513500549421768
mp-13961,NdAs2,-1.1671387575
mp-778352,LiFeF4,-2.754042902222222
mp-613927,KCeCuTe4,-1.067573040559522
mp-4340,TbPO4,-3.500272270218253
mp-980752,Sm3Co,-0.092368299375
mp-554097,Sm3CuSiS7,-1.836235165624999
mp-640324,TmCuPbSe3,-1.2287362040885421
mp-22957,SrClF,-3.541261810833333
mp-862953,PmSbAu2,-0.682360229375
mp-675324,BaCO3,-2.606955458999999
mp-19146,CrPbO4,-1.7243814908333341
mp-2956,Co2(GeS)3,-0.602806514374998
mp-23143,Ca2Cu(ClO)2,-2.407438672857143
mp-30275,BaP8,-0.309704130238093
mp-703591,Ba5B20(H2O19)2,-2.796090374303483
mp-1006371,CePS,-1.72698442529762
mp-29516,Bi7RhBr8,-0.7883284354687511
mp-770662,CdCoO3,-1.126618073999999
mp-865470,Ac2CuSn,-0.37453171624999704
mp-759924,Bi14SO24,-1.7052643568589732
mp-27893,B5H9N,-0.22686154868333502
mp-29674,Al2B2Ru3,-0.5191039216666691
mp-18421,Ba2Ga2S5,-1.668080664166666
mp-705472,AsS,0.019768445989583
mp-20129,BaTbO3,-3.124320660333333
mp-30473,Ca3Ga5,-0.584581634375
mp-561089,Ba3LaIr2O9,-2.494737784000001
mp-570390,Ba5Al2Ge7,-0.527330480714285
mp-18952,Ca4Mn2O7,-2.806712146604773
mp-5173,Ce(SiAu)2,-0.580852651999996
mp-625873,Ba(HO2)2,-1.4298547017857142
mp-704461,Ba3La7Mn(Co3O10)3,-2.41142772865862
mp-16998,Ba2Nb6Te2O21,-2.85137372155914
mp-6647,BaYAgSe3,-1.773074978116318
mp-8236,Ba(PPd)2,-0.796965229857145
mp-774105,Ca5Ge3O11,-2.910897137631578
mp-531238,Cd(GaO2)2,-2.007234856190475
mp-554023,Be2BO3F,-3.178649017738095
mp-1018050,CrC,-0.001850867499999
mp-38870,Ca(Ce2Se3)4,-2.069041325148807
mp-866015,CaPrZn2,-0.303852802916666
mp-10299,Ca4PdO6,-2.675235593636361
mp-567685,Er4InIr,-0.599924862777777
mp-16486,Ce(Al2Fe)4,-0.412553496153843
mp-557362,AlPO4,-3.110478544246031
mp-1609,Cr3Ir,0.140515729999997
mp-2620,DySi,-0.898450372500001
mp-5820,Ce(CoP)2,-1.002406097857165
mp-1013707,Ba3PN,0.25730490207142803
mp-1009079,CrTe,-0.21043767333333202
mp-29938,Ba(GaSb)2,-0.604923376000002
mp-541157,EuCd(BO2)5,-2.772334212696078
mp-1019513,AlPO4,-3.124925000218252
mp-5251,Ca4CN4,-1.020304299444444
mp-944,AlB2,-0.050413121666666005
mp-1018098,Ba2BrN,-1.41151841
mp-31509,BaIn,-0.41639085083333305
mp-11351,CeAlNi,-0.568344964444443
mp-705553,Fe23O25,-1.4789985053125
mp-1008918,CdN,0.8603301724999991
mp-16252,BaCaGe,-0.5828065666666661
mp-696853,CaZnSiH2O5,-2.46385951625
mp-626720,BaH4O3,-1.7558179193749992
mp-9759,BaPr2PdO5,-2.947633575370384
mp-770566,Be(FeO2)2,-2.055603252142856
mp-19182,Ba2CaWO6,-3.030209073
mp-770836,Ba5Sc6O14,-3.498083378399999
mp-567375,Ce(AsPd)2,-0.9487401296000031
mp-28554,Ca2AsI,-1.500340893124999
mp-684677,Al2O3,-3.2653915165000003
mp-9908,Ba2Sb,-0.924349306666666
mp-6223,DyNi2B2C,-0.513557532499998
mp-88,Dy,0.0
mp-555843,Ag3AsS3,-0.139178357633923
mp-769471,Fe3Co2P6WO24,-2.269151468829364
mp-997013,AgClO2,-0.263188569166665
mp-569529,Ba2Bi3,-0.7661233980000051
mp-23548,AgBiO3,-1.003011011333333
mp-762304,BiOF,-2.195176305833336
mp-9760,BaTb2PdO5,-3.056340362592593
mp-568541,Dy2B4C,-0.6631024200000011
mp-4236,BaZnO2,-2.3654240366666652
mp-557180,CaAs2(XeF5)4,-1.934836184074074
mp-1019738,BaEu2O4,-3.082200369285715
mp-861884,AcGaTe2,-1.071641271875002
mp-22361,CeReB4,-0.577357480277775
mp-12006,CeCdNi4,-0.34020869666666603
mp-14481,Er(BRh)4,-0.578726932685184
mp-565590,Cu4GeS4,-0.46238710069444305
mp-28104,Fe2MoP12,-0.369871067714292
mp-568661,Cd(InSe2)2,-0.8316141446726181
mp-559234,CsLa(PO3)4,-2.939190691568145
mp-561437,Al2Ge(O2F)2,-3.1719766036111112
mp-505392,Ba3V4O13,-2.8231374335
mp-11294,DyCd2,-0.28150662388888203
mp-555164,Ca5P3ClO12,-3.312047423877551
mp-6040,BaBPO5,-3.116867103184523
mp-582389,Eu2B5Os3,-0.390264084583334
mp-675328,Ce4GeS3,-1.9108486721874982
mp-18991,Ba(NiO2)4,-1.236639218461538
mp-559620,Cu5Bi2(B2O7)2,-1.822408794266666
mp-614572,Ca3InP3,-1.139431833418366
mp-12855,Cu2HgGeSe4,-0.478189799609376
mp-12181,BaSnS2,-1.543447148749999
mp-4280,GaCuO2,-1.6747150606249912
mp-634977,Cs3Fe2Cl9,-1.6868304763546802
mp-20793,Ga2FeS4,-0.807920530714285
mp-23285,CeBi,-1.166013417500003
mp-766856,CuPO3,-1.903254881678571
mp-669353,Cs2TeO4,-1.7969345708538582
mp-625316,Al(HO)3,-2.021206131964286
mp-561461,Cs2KMnF6,-2.9384884644491382
mp-707208,H8C2SeS2(N2Cl)2,-0.48420774380756504
mp-13907,CdSnF6,-2.601074608750001
mp-620364,CaSmCuClO3,-2.7177586035714283
mp-867753,CuSbRh2,-0.29537934250000203
mp-28693,Al3Te3I,-0.5306426749999991
mp-26100,Bi2(PO4)3,-2.139646696554622
mp-756683,HfBiO4,-2.719543018333333
mp-31090,Er2Pd2Pb,-0.8454010419999961
mp-561446,BaCa(GaO2)4,-2.634351782857142
mp-766370,CeZr9O20,-3.779298746666668
mp-652274,Ge2RuC4(Cl3O2)2,-1.177360409264706
mp-754798,Bi2SeO6,-1.3366393741493061
mp-5730,Ba(BO2)2,-3.096467324523809
mp-645513,HfTl8(MoO4)6,-1.9073256970940191
mp-571069,Ba3(CdSb2)2,-0.846956712222224
mp-625583,H7BrO3,-1.134873436704545
mp-675524,CsPbCl3,-1.886758025931041
mp-16108,Cs3P6N11,-0.8142863672053561
mp-667295,Cs7Cd3Br13,-1.756576808155922
mp-1008284,Cr3Ni,0.19039660125000002
mp-759209,Ag2SnO3,-1.199544141805554
mp-720571,CaH8(ClO2)2,-1.5664116661111112
mp-27578,As(S2F3)2,-1.754707911306817
mp-684096,Bi(PO3)4,-2.367928225357143
mp-640551,Ba4Si23,-0.052810975925926006
mp-8431,Ca(BRh)2,-0.600185274666687
mp-23859,CaHCl,-1.7564586887499951
mp-16533,BaNd2FeS5,-1.964073068055555
mp-546321,Ba2NdBiO6,-2.763932660750001
mp-1017591,BaRuO3,-2.121449641
mp-542831,Gd2SiO5,-3.73295124156251
mp-768539,AlTlO3,-2.188174606166668
mp-15987,Hf3(Cu2Si)2,-0.48338578999999804
mp-628631,GdBi2IO4,-2.297375686875001
mp-1019528,Ba2Mg(BO2)6,-3.052026132380953
mp-374,CrB2,-0.262860444444445
mp-6841,Ba4NaCu(CO5)2,-2.459740442854406
mp-542779,GdAg,-0.247884267499991
mp-669455,Ga4Hg11(AsBr4)4,-0.782182087928573
mp-505222,CdInBr3,-1.1015255183333341
mp-13001,Ba2HoTaO6,-3.589574164233332
mp-8416,BaCaGaF7,-3.73498281475
mp-18718,Ca(NiO2)4,-1.262754084999999
mp-556458,BaCa(CO3)2,-2.673975183333334
mp-504752,Fe3BO5,-1.963626837962965
mp-864795,Ac2SnHg,-0.645805788125002
mp-864886,Dy2NiIr,-0.64992929333333
mp-20273,Ca3PbO,-1.689312636999997
mp-5838,Ba2SiS4,-1.8971593110714262
mp-7364,Ca(SiAu)2,-0.513944779999997
mp-622000,Cs3Sb2N3(O3F2)3,-1.880911729302849
mp-24645,Er(HO)3,-2.247883594821428
mp-28366,Gd2B5,-0.613702832142856
mp-755183,DyTlO2,-2.70983181875
mp-865142,DyMgZn2,-0.335331704166665
mp-721415,CuH12N2(Cl2O)2,-0.9136483988095231
mp-673848,Ce2Dy2O7,-3.895141075757574
mp-303,BaZn5,-0.221107078333332
mp-12761,BeAu2,-0.135768288333335
mp-744574,CoH6(SeO4)2,-1.2166798251286761
mp-971694,Ge3N2,0.047318293500001
mp-6036,CaCu3(RuO3)4,-1.4716149799999991
mp-20886,CeZnSn,-0.5585938983333351
mp-643346,Al2Ge(HO3)2,-2.485961266590909
mp-865904,BeSiIr2,-0.663109713750001
mp-1018162,CeBiPt,-0.9325651566666631
mp-4396,Ba(NO3)2,-1.590176572222223
mp-755831,BrClO,-0.263298104999999
mp-777918,Cr3Sb5O16,-1.9229492799999992
mp-6738,Al6B5(O5F)3,-3.272279260545977
mp-561502,Ba8B5N10F,-1.370025738472222
mp-757836,BeH2SeO4,-1.721702212167969
mp-568397,CuMo3Cl7,-0.990046611249999
mp-754692,Bi2BO5,-1.939267406770834
mp-569200,Eu(Al2Fe)4,-0.356285661153845
mp-30614,ErZn12,-0.19413086717948902
mp-8829,CrGaSe3,-0.8617633184062491
mp-1013524,Ca3N2,-0.448550294749999
mp-757333,Al12PbO19,-3.303875141406249
mp-707746,CaAl2Si3H6O13,-2.6299011555
mp-556402,CuAg5As3O11,-1.115236050041666
mp-541108,Cd2Si(P2O7)2,-2.559254113027209
mp-29208,Ca(MgBi)2,-0.516634074000004
mp-37741,Ba(LaSe2)2,-2.304316377767856
mp-561619,CsLuS2,-2.047187931580456
mp-31516,Co(ReO4)2,-2.035404187727273
mp-21871,CeCrS3,-1.671636384499998
mp-3688,Er2Sn2O7,-3.030940987272725
mp-677705,Ba24In19N11,-0.39454264836419706
mp-774048,Fe4OF7,-2.417944712916666
mp-19039,CdMoO4,-1.814628006666668
mp-581862,Cs2NaAl(PO4)2,-2.829497928480383
mp-1019516,Ba4GaN3O,-1.065269763472223
mp-705034,CrPb5O8,-1.59761015580357
mp-1019603,Cs2BaP2O7,-2.8856225659246713
mp-6766,CaMg(SiO3)2,-3.343864678
mp-555087,Ba5Si(Cl3O2)2,-3.147026776562501
mp-2605,CaO,-3.306019392499999
mp-768373,Ba2YBr7,-2.4354931627500003
mp-662558,Ce3Sb5Pd6,-0.9471913807142821
mp-239,BaS3,-1.4342925506249982
mp-2209,CeGa2,-0.723751536666668
mp-755895,Ba3Zr2O7,-3.519513482083334
mp-1480,BaSi6,-0.020854319285714
mp-630328,Ba3FeS5,-1.761802130555554
mp-26574,Bi(PO3)4,-2.373241197710084
mp-648179,Cs3Mn3V4O16,-2.313976777029178
mp-573204,Cs2KBiF6,-2.932455240656035
mp-554817,Ba3CaSb2O9,-2.762295101333334
mp-554842,Cs5Si3AgO9,-2.501421636385697
mp-559384,BaNaNdSi2O7,-3.349459029594108
mp-643203,Cu6PbSe2Cl5O8,-1.080906029758522
mp-560626,Ba2Ni7F18,-2.7366101596296293
mp-849387,Cu6OF11,-1.701870737777779
mp-10344,Ba2PrNbO6,-3.354416347166667
mp-769213,Dy2(SeO4)3,-2.052460007521446
mp-997092,AuClO2,-0.131221201249999
mp-8194,Ba2GeP2,-0.8507398508571411
mp-12083,CrIr3,-0.258463607500004
mp-643036,BaHBrO,-2.3018639871875
mp-556863,Ba3AlF9,-4.097918263846154
mp-10910,Al2Ru,-0.7811005950000001
mp-335,BaGa4,-0.45104950200000005
mp-40206,Ca2Nd2Nb3FeO14,-3.226899365227272
mp-756708,CaPrO3,-3.012427107833333
mp-556385,Cs3ZnI4NO3,-1.421134303455459
mp-4487,Er(MnGe)2,-0.47516016717240805
mp-758253,CaH12(IO6)2,-1.338315944814814
mp-771691,CaPbI6,-1.070896201250001
mp-1418,FeNi3,-0.08975935499999901
mp-9420,Dy(CuO2)2,-2.08190569238095
mp-19426,CaWO4,-2.726062027499999
mp-752674,BaY3F11,-4.344770196666666
mp-773538,CrFe3Cu2(PO4)6,-2.179638083273809
mp-625915,Ce(HO)3,-2.145857351249999
mp-6693,CaZn(SiO3)2,-3.0329841
mp-510724,As3Pb5ClO9,-1.62900363875
mp-697008,CuH12N2(OF2)2,-1.229964911190475
mp-676867,Ca2HoF7,-4.126202660500001
mp-541335,As2Se2S(NF6)2,-1.771516439588816
mp-675768,Dy14Ti10O41,-3.74859832602564
mp-8742,DyCoSi2,-0.742669484166667
mp-6169,Ba3Ta6(Si2O13)2,-3.43141231548718
mp-574338,CsGa3,-0.215087933333334
mp-580324,Ce4In8Ni7,-0.345864099649121
mp-1013738,Ca3SbAs,-0.46732404549999906
mp-570591,CsHgCl3,-1.520184172431036
mp-14292,Ba2NdSbO6,-3.00894608975
mp-554868,Al(MoS2)4,-0.93897091767949
mp-1008226,CrFe2Sn,0.25434606875000004
mp-27709,Bi6Br7,-0.782844882115385
mp-34009,Ce(SmS2)2,-2.30112171142857
mp-565597,Cu3P4S4I3,-0.442706928707482
mp-505145,Ag3BiO3,-0.7834499885714281
mp-865247,GaFeIr2,-0.227981726874999
mp-553918,Eu2B5ClO9,-3.026125939754903
mp-554408,CsAgSb4S7,-0.6540880306786021
mp-754929,Ga3NO3,-1.764881792857142
mp-12803,BaEr2F8,-4.418706838181815
mp-20220,CaInRh,-0.612339487499999
mp-698549,Ca4Mn4O11,-2.52329018798548
mp-9457,Ca3ReO6,-2.923372625249997
mp-5960,Ca3UO6,-3.5820819115
mp-7493,CaSb2,-0.740698304999996
mp-13038,Dy2C(NO)2,-2.488949032619046
mp-759985,Bi3O2F5,-2.41990983825
mp-505574,Co2Mo4C,-0.053172099523806006
mp-542469,Gd2Si2O7,-3.6186688118181802
mp-6926,Ca(PPd)2,-0.847426071857156
mp-30142,Be4N6O19,-1.374715929482759
mp-585516,Ca3Si2O7,-3.462348215
mp-554636,Gd2B(OF)3,-3.877133116574075
mp-23715,BaH2,-0.6047468716666671
mp-29084,Ba2GdCl7,-2.872607037499999
mp-627442,Ge7H18O23,-1.554405403385416
mp-782035,Al2O3,-3.336473075333334
mp-188,AlPt3,-0.739235739999998
mp-638442,Gd2Al6Si4Au,-0.40115831461538404
mp-7906,Al2HgS4,-1.106310683214292
mp-12324,CsVP2S7,-0.9247722964946251
mp-4627,CoAsS,-0.473926144270831
mp-669333,Ba5Si8O21,-3.368877553970587
mp-34185,Ca(PrS2)2,-2.372946218511903
mp-9899,BaAgP,-0.72254780876984
mp-11266,BaCd2,-0.30959315333333304
mp-17516,Ca10P6SeO24,-3.283132694882948
mp-1018084,CrAgTe2,-0.346476566249998
mp-6501,BaHo2ZnO5,-3.269829354722221
mp-568514,BPBr2NCl3,-1.046515197663691
mp-768507,Cu2(SO4)3,-1.440933330147058
mp-766340,Ba2CaI6,-1.961485096666666
mp-983556,Er2MgTl,-0.19838838458333302
mp-22184,Ba2SmNbO6,-3.3962468105
mp-607124,Dy5(In2Ni)2,-0.512761570909086
mp-18142,Ca(Al5Cr)2,-0.180187588560613
mp-8924,Ba2LiFe2N3,-0.572759363541666
mp-760729,Ca2Ga2Si(HO4)2,-2.655437511166666
mp-4953,CdGeAs2,-0.07637719499999901
mp-6182,CsTb2Cu3Se5,-1.325631329064296
mp-5518,GaAgSe2,-0.5399828320312511
mp-651847,GdGaGe2O7,-2.587995915909092
mp-21866,Dy2InAu2,-0.8102908430000011
mp-19766,CeSnPd,-0.830395252777776
mp-773894,CaB2(H2O3)2,-2.258136264967949
mp-20470,Gd2O3,-3.864237869500002
mp-997016,AgClO2,-0.256371372916666
mp-762236,Al3CrO6,-3.146080477999999
mp-541430,BaLaCuSe3,-1.856938119921875
mp-639789,Fe2Re3,-0.009121351999999
mp-505364,CdPH6NO5,-1.487993690867347
mp-532059,Er2CdS4,-1.9143529824285692
mp-23129,Ba2Cu3(BrO2)2,-1.7906236781818181
mp-863679,ErTaRu2,-0.425428669333328
mp-20738,FeSi2,-0.32531209124999905
mp-14026,Ca2Ta2O7,-3.482593376333331
mp-29819,Ba2Si3Ni,-0.47105561388888806
mp-11658,Cu2SnSe3,-0.34155045919791305
mp-7374,Ba(CuO)2,-1.616588649999994
mp-568031,GaHg2SbCl4,-1.081775489843751
mp-542812,GaTe,-0.44299320083333205
mp-962067,BaNaSn,-0.17681190545976902
mp-9186,CdSeO3,-1.4144812314687512
mp-134,Al,0.0
mp-622195,CsSO3F,-2.260244409109196
mp-772874,CaBi2O5,-1.9419668914583341
mp-20975,CeIn5Ir,-0.37652915333332804
mp-560278,Er3B5O12,-3.365137111291666
mp-2939,BaTbO3,-3.117726795333334
mp-29821,Gd4B3C4,-0.5237199579545451
mp-866001,AlVRu2,-0.730717902500003
mp-780856,Co6O7F5,-1.495152283888889
mp-22683,CeCuSn,-0.47673783166666006
mp-3078,CdSiAs2,-0.10667615875000001
mp-568668,DyFe2SiC,-0.5078236713333321
mp-556091,Cs3Ta2S11,-1.225006255070761
mp-672338,Cs(Bi2Te3)2,-0.5948350747413801