material_id,formula,formation_energy
mp-558702,CsMnF3,-2.987847402850575
mp-667294,Ca5(PPd)6,-0.9817310710504191
mp-22888,CaBr2,-2.402401639999999
mp-643047,Ba3(H6Ir)2,-0.674898203235293
mp-364,AlRh,-1.17748661
mp-773111,Ba2LaCl7,-2.851933643
mp-5605,Ce(SiAg)2,-0.363825308666665
mp-18540,CsEr2Cu3S5,-1.424489330672346
mp-776658,BaO,-2.812731088124999
mp-559210,Ca5Te3O14,-2.515575597499999
mp-572797,Cs2IrF6,-2.396600496666666
mp-699261,CdH16C4S4(N4Cl)2,-0.48592366671428605
mp-8978,CsNbN2,-0.9110458324137941
mp-9360,CaU(PO4)2,-3.231684344523808
mp-12723,CaAu,-0.8549962350000011
mp-1006367,Ce2HfSe5,-1.940497612402342
mp-778072,Ba2Y5F19,-4.282181089230769
mp-675769,Ce(Mo3Se4)2,-0.970558108583333
mp-572598,Cs2Ge2S5,-1.071860271034482
mp-567456,CaGe2,-0.555440400000001
mp-758059,Ba7Pb17O24,-1.889409310416666
mp-560345,Cs3CuTeS9,-0.827129019330869
mp-2413,Ce3Al,-0.23543659249999702
mp-34656,Cd(CN)2,0.251232204000002
mp-1500,BaS,-2.329565223749999
mp-23398,BClF6,-1.808708441249999
mp-29783,B5H9,-0.06188175974026001
mp-1639,BN,-1.335625025625001
mp-306,B2O3,-2.798056310000001
mp-780891,Fe4O7F,-1.4552941820833332
mp-3414,AgSbF6,-2.358844439270832
mp-983590,Be3Fe,-0.20898726124999903
mp-20665,CeInCu,-0.403753805555557
mp-570026,ErAgGe,-0.639566118888885
mp-5083,Er(CuGe)2,-0.474695871999998
mp-984718,BAs,-0.032509467291665005
mp-1018671,CeZnGa,-0.45905287583333104
mp-775763,AlBiO3,-2.475551670500001
mp-21137,Ca2PbO4,-2.551106224285708
mp-36248,H4BrN,-0.6925011666666651
mp-673875,Fe2RhS4,-0.6507516049999991
mp-562667,Ag3N5O6,-0.321044200714286
mp-556702,Ba6Eu(ClF6)2,-3.9654305154761893
mp-771828,Dy2Zr2O7,-3.822854308939392
mp-680754,Ca5CuPb3,-0.436229524999998
mp-684605,Cu17Se10,-0.07142315354166401
mp-5189,AlAsO4,-2.456086594583332
mp-38950,Ce2Y2O7,-3.8713124704545443
mp-763020,Fe4OF7,-2.418891556249999
mp-1019552,Ca16(SiN2)17,-1.36736013761194
mp-21141,Fe2CuGe2,-0.07974541
mp-27445,As(IF2)3,-1.726892136249988
mp-22759,CoBW,-0.36355844083333405
mp-757073,Ba4LiY2Cu5O14,-2.258967747435897
mp-19818,Dy3PbC,-0.5313133199999961
mp-14694,CaCuP2O7,-2.631960237889609
mp-866635,CuH3NCl,-0.615526005208333
mp-17761,CaGeO3,-2.749981945333333
mp-10509,BaGaBO3F2,-3.1632819270833332
mp-985304,Cr(GaS2)2,-0.891246550714284
mp-758006,Ca2SiO4,-3.418520634642856
mp-10293,BaC2,0.08324176999999901
mp-573751,AlTeCl7,-1.124001829722222
mp-715333,Fe7O8,-1.493853144333332
mp-706664,B10H13,-0.091312795692935
mp-30003,AuSO4,-1.313295811874998
mp-557955,Ca3Al4ZnO10,-3.261105067916666
mp-2554,Al3V,-0.34389383499999904
mp-768223,Cs2CeO3,-2.669666480718389
mp-3828,BaAl2O4,-3.446832076428572
mp-1013542,Ca3BiN,0.5483129252499961
mp-13138,Cu3Sn,0.036009035000001
mp-11269,BaSn3Pd,-0.6468947850000021
mp-30186,Ba3Si23,-0.022361497884614
mp-6753,Ca5Si2C2O13,-3.106294844318182
mp-554801,Ca3Nb4(O6F)2,-3.358564311547619
mp-1143,Al2O3,-3.426551008
mp-560600,CsNiPdF5,-2.142377060312498
mp-626973,Ba(HO)2,-2.057213571
mp-1013716,Ba3BiAs,-0.30899205749999903
mp-6077,Ba3SmRu2O9,-2.595811925000001
mp-8281,Ba(CdAs)2,-0.614831377000001
mp-23004,CsMgCl3,-2.313710576931034
mp-23137,Ba2YBiO6,-2.8078685930000002
mp-542342,Dy5Ga3,-0.5914715650000021
mp-24204,CaHI,-1.299942560416665
mp-557855,CaGaBO4,-2.9093757377380953
mp-567517,Er5(CoTe)2,-0.8298932031481451
mp-699398,CsMnMo(OF)3,-2.4648248897318
mp-5767,DyPO4,-3.503172621884905
mp-756276,CeHfO4,-3.902244745833332
mp-697819,Fe2P3O13,-1.557358493829366
mp-17928,Ba(ErTe2)2,-1.767831322023807
mp-18291,BaSbTe3,-1.041214254999998
mp-28541,Bi2P4O13,-2.472385317293247
mp-12644,Ba2LuNbO6,-3.506273435666666
mp-756235,Ba3SrI8,-2.020562539166665
mp-754154,CsHoO2,-2.970132069913791
mp-27625,Ge19(PBr)4,-0.242748539206349
mp-541338,AlPO4,-3.108515839107142
mp-6118,Ca3Cu3(PO4)4,-2.620999984945054
mp-618991,Cu2S,-0.19259980177083302
mp-22423,BaLa2CoS5,-2.018519656944444
mp-752424,Ba4Br6O,-2.618669077272727
mp-24044,CaH12(BrO3)2,-1.4318097849999991
mp-766348,BaCaI4,-1.91148522625
mp-1002165,GeC,1.271791283749999
mp-776825,BaY3F11,-4.2971983615
mp-14285,CoP2,-0.506288872817461
mp-621667,Eu3Ag2,-0.26552841999999804
mp-1008223,CaSe,-2.057931684531251
mp-23029,Cs3Sb2I9,-1.149382419568967
mp-17583,Gd2TeO6,-2.972620136574074
mp-12052,Er4Sb3,-1.08963017547619
mp-1272,Cr3Ru,0.081989513750002
mp-505473,Al(Ni10B7)2,-0.27968089766666504
mp-545788,Ba3ZnN2O,-1.204289910714286
mp-7882,Ba(AgSn)2,-0.397887482666665
mp-759897,Cu2OF2,-1.433523159
mp-770715,Ga2WO6,-2.140316082222221
mp-530449,Ca3(AsO4)2,-2.701729207527472
mp-23252,Ce4Bi3,-1.021689501428568
mp-1018154,Hf2Hg,-0.160965005833342
mp-754991,Ga3NO3,-1.748932898214285
mp-29199,BaCuN,-0.46787788888888804
mp-556639,DyNbO4,-3.569322741944445
mp-8398,CsYbF3,-3.205172131
mp-10901,Al3Pd2,-0.812340915999999
mp-30300,Cs3As5O9,-1.8080240271450312
mp-9793,Ba3BAsO3,-2.533021692708333
mp-541742,Cs3Mo2Cl9,-1.656949164107142
mp-866306,Ba(NdS2)2,-2.375684078571425
mp-1019520,Ba3Ca2(SiN3)2,-1.165819193846153
mp-622183,Co2PClO4,-1.959027435892856
mp-541940,Cr6Si7Ni16,-0.31236372014367403
mp-17273,Ba(HoTe2)2,-1.77085865702381
mp-9783,Ba3(AsO4)2,-2.69028426346154
mp-706937,B9H11,-0.0954718813125
mp-27810,Ba(GeAs)2,-0.49725449949999906
mp-651706,Cu6AgBi12PbS22,-0.542824070039682
mp-14052,Ca3In2(SiO4)3,-3.076163894166666
mp-17914,CaGa4O7,-2.506107837916667
mp-29755,CaSi2O5,-3.287025233125
mp-781605,Co2O3F,-1.282015536249999
mp-555117,Cs2Bi4O7,-1.677617009946951
mp-673655,Cu9Se5,-0.088991285915178
mp-997026,CuClO2,-0.517718236249999
mp-554245,BaPb2IF5,-2.878751976666666
mp-554822,CsSb(PO4)2,-2.469188492411739
mp-504554,Ba5Ta4O15,-3.439217441430571
mp-29722,Ca11InSb9,-1.055011220079364
mp-542001,CeF4,-4.057656529333332
mp-559847,Ag5P(S2Cl)2,-0.5435249585813471
mp-1791,Al5Rh2,-0.8065616792857131
mp-23666,AsH8CN3O4,-0.9105292757352941
mp-644226,BaH2C2O5,-1.9342404862500002
mp-776666,CrFe3Sn2(PO4)6,-2.345040502996033
mp-572805,Cs2I4O11,-1.153329669371196
mp-39440,Ca2MnIrO6,-2.298020989293104
mp-27482,Ag4P2S7,-0.24227650421586602
mp-540538,Ga4Fe3,-0.17859897714285602
mp-571054,Cu2Mo3Se4,-0.424669818472223
mp-707209,CsH24Rh(SO10)2,-1.4132110031178151
mp-558377,B2H12C3(NO)6,-1.073134288390805
mp-14432,GaTe4(MoSe)4,-0.7299396341185881
mp-761,CeCu5,-0.10422689500000101
mp-697242,H5C2NO,-0.557768444027778
mp-753670,CaPbI4,-1.407428751666665
mp-862786,Ac2CuGe,-0.386251328749999
mp-28894,Ba2P3Pd,-0.9124753752380931
mp-530316,Dy2TiO5,-3.778288352239583
mp-779989,Gd2P4O13,-3.11418109018797
mp-583034,Ba2U2O7,-3.681598229999999
mp-28194,BiClF8,-1.39883858525
mp-540703,Cs2S,-1.192438348437498
mp-679936,Er7C2I12N,-1.532865904090909
mp-983555,Er2PdAu,-0.9481179916666631
mp-983539,BeAu3,0.080005123749999
mp-425,GdB2,-0.504459632666671
mp-27187,Be2TlF5,-3.197747547916668
mp-756457,ErNbO4,-3.553419810833333
mp-7590,GeP,0.096326366011904
mp-20995,Eu4As3,-1.227785142500002
mp-21419,CeMg2,-0.0051965222222200005
mp-696806,BaH4(BrO)2,-1.7039745744444441
mp-737,Hf5Ge4,-0.768720404444441
mp-21568,BaSm2CuO5,-3.005647547777777
mp-22420,CuTeO4,-1.2306512961111111
mp-27577,Cd2As3I,-0.252506879583335
mp-504355,Bi(PO3)4,-2.383835097268907
mp-541899,CsCdBr3,-1.585478883931036
mp-1019379,AlB3N4,-1.118875966562502
mp-8462,Hf3Al2,-0.37701472700000505
mp-772255,CuPO3,-1.9813016345952381
mp-697126,Ca4(H4Rh)3,-0.674557199210526
mp-19238,Co(PtO2)3,-1.021103145
mp-11630,Dy2Al6Si4Pt,-0.5163146964102551
mp-11367,DyHg2,-0.46705707
mp-753954,CdCuH8(ClO)4,-1.2251860577777771
mp-27441,Au2Se4O11,-0.9884635352573481
mp-2404,CaAl2,-0.355376705
mp-1939,ErNi2,-0.48024980999999806
mp-27853,Hg3(TeBr)2,-0.612633355119052
mp-631422,CuSiBr,0.5012402783333331
mp-1018660,CeCoSi,-0.635787703333334
mp-29676,Dy3AlC,-0.529014536999997
mp-30353,AgPt3,0.030191862916659002
mp-4429,CaSiO3,-3.4480482148333342
mp-754781,Ga3NO3,-1.7602187710714272
mp-5940,CeB2Ru3,-0.508995821388885
mp-756098,BaSrI4,-1.937003645833333
mp-14445,Ca(BIr)2,-0.7787672710000011
mp-570863,CrCoPt2,-0.13019943749999702
mp-1735,BaC2,0.096188543333333
mp-8956,Ho2S3,-2.365832606187498
mp-556130,GeXeF10,-1.577530087291666
mp-560453,Ca7Cu(PtO6)2,-2.485199199545454
mp-757360,HgTe(HO)7,-1.213313111432292
mp-973778,Hg3F,-0.49470473562499206
mp-697840,Ba3La7Ti3Cr7O30,-3.255805064899999
mp-9928,CaRhF6,-2.63975013875
mp-574426,CsCeCdSe3,-1.567426544447736
mp-6850,Ba2CeC3O9F,-2.818670645624999
mp-542286,Ba4Na(RuO4)3,-2.261358031568965
mp-755478,CdBiO3,-1.4350966490000021
mp-22745,Co9Se8,-0.199138281323528
mp-675372,CaZr4O9,-3.665526112142857
mp-542819,Cs3B12H12Br,-0.5043458196059101
mp-771967,BaLaCl5,-2.822275983035714
mp-23112,AsS3(ClF2)3,-1.5098800773076921
mp-1981,Ba2Sn,-0.607812785000002
mp-21556,Ce3(InRu)2,-0.45540772083332703
mp-24147,AcH2,-0.6843335983333341
mp-644499,CeCoGeH,-0.655798514062495
mp-8094,Ba2Hg,-0.38199362749999805
mp-917,CaC2,-0.137819261666666
mp-24614,BeH8(NF2)2,-1.565097325166666
mp-651358,Ba2ErCl7,-2.865382417500001
mp-23623,B5Pb2BrO9,-2.5360918624019613
mp-24011,CeHSe,-1.5772010628645812
mp-15515,BaNaAlF6,-3.827905487097701
mp-766332,BaCa2I6,-1.852086808055555
mp-553025,CaBiClO2,-2.432455363
mp-569628,CaCdAu,-0.608601469166665
mp-556178,BaAl2(GeO4)2,-2.900718550961538
mp-1700,AlN,-1.658923009375
mp-3312,Cs(SbSe2)2,-0.6016597880357121
mp-683887,Ba5Na2Ru3O14,-2.254328664073275
mp-997082,BiAuO2,-1.1179759625
mp-768357,Ba2Ti11O24,-3.485564316666666
mp-698206,Ba5Re3O16,-2.685463896770834
mp-6270,Ba2LiReO6,-2.741621015583333
mp-29372,Cs2GaSb2,-0.5700115987500021
mp-27997,Ca3Al2Ge3,-0.6229662850000001
mp-3417,Ca(BO2)2,-3.107391752440474
mp-778385,B3H3SeO9,-1.897465811708984
mp-782009,Ca9La5Br33,-2.316049757553191
mp-776074,CaGeO3,-2.719910516333334
mp-559733,GdH7C2SO8,-1.615535317171053
mp-23810,BaAsHO4,-2.255684732946428
mp-16044,Ca(As2Rh3)2,-0.71111373909091
mp-686077,Er18Ti14O55,-3.763499655766282
mp-636316,EuIn2,-0.462747432777777
mp-16793,Be3Cd4Si3SeO12,-2.578585944014945
mp-29154,Hf2CoP,-0.935349421994047
mp-20859,DyCuSb2,-0.6997445091666681
mp-15951,BeF2,-3.550678696111111
mp-570060,Ce6B2(CBr)3,-0.948268117738093
mp-30432,Ba(RhPb2)3,-0.24267193799999
mp-643930,Eu2H4Pd,-0.575370831428565
mp-554079,FeS3N2Cl5,-0.5340492506818181
mp-759835,CeMgAu,-0.540785976111112
mp-556036,Ba3Al2Cu2F16,-3.484928174130434
mp-1018715,Hf5Pb,0.020506999999999
mp-27649,BaU2O7,-3.638299954999999
mp-643718,BaMgH4,-0.491338425
mp-8658,CsNaSe,-1.313769136354165
mp-743694,Ba2La4Mn5SnO18,-2.815877459488507
mp-640340,Ca4MgAl3,-0.21141954781249903
mp-569581,Bi2Pt,-0.24849025958332902
mp-980005,AcYbRh2,-0.6750111106249931
mp-510508,Ba2(IrO3)3,-1.871456811071432
mp-4955,AlVCo2,-0.44793970249999904
mp-554015,CsK(ClO4)2,-1.094433597242098
mp-1016853,CaVO3,-2.831268961
mp-8335,Ba2ZrO4,-3.430814742857144
mp-505334,Dy2Mn3Si5,-0.624471279344828
mp-23060,Cs2PtI6,-1.070568932145593
mp-783902,Dy2V2O7,-3.162852855303029
mp-31216,BaCd11,-0.12608137708333
mp-16523,Al3Pd5,-0.857533224374996
mp-556440,CaZr4(PO4)6,-3.250465469367347
mp-1019578,Ca5(SiN3)2,-1.310710175
mp-865168,Be3Ni,-0.28368570124999903
mp-20010,DyCuGe,-0.7705650283333341
mp-4728,Cu2GeSe3,-0.48109025867187305
mp-866500,Ce3MnAlS7,-1.884728052952585
mp-39689,CaLaMn2O6,-2.7749981045862073
mp-19441,CaCr(Si2O5)2,-3.16275681640625
mp-620571,CaInPd,-0.7648142274999971
mp-19865,Ce(MgSi)2,-0.38685437799999806
mp-3861,Al(MoS2)4,-0.9366198861410271
mp-8150,Ba(CdSb)2,-0.6039184979999991
mp-10964,CeB2Ir2C,-0.615347130555553
mp-24618,AlH10N2OF5,-1.7013873402631572
mp-740752,BaRe2(H2O3)4,-1.8619164310869571
mp-972199,CsTbS2,-2.123014090156246
mp-568039,Cs(WCl3)3,-1.389765341127319
mp-556278,Bi6As9Se4S10(O4F13)5,-2.196588894095394
mp-677105,Cu2GeSe3,-0.48073083867187305
mp-677422,Ca2Ga2Si(HO4)2,-2.642114125166666
mp-488,CuSe,-0.18448107953125
mp-781606,Fe4O5F3,-1.316364658749999
mp-4182,CrAgS2,-0.7243781191666641
mp-752679,CaGd2O4,-3.671435590000001
mp-553930,B2Pb6SO12,-1.977821851349205
mp-10597,Ag,0.007668675000001001
mp-753493,CeU5O12,-3.8070645327777752
mp-2893,Dy(SiRh)2,-1.118070554333331
mp-541832,Ba2SnS4,-1.703901759999997
mp-30069,CuNi2Sb,-0.07411526916666601
mp-977370,EuOsO3,-2.039850706000001
mp-754501,Ca(CuO)2,-1.676793532
mp-12743,CrTe4Au,-0.42683443611111205
mp-32633,Dy6Se11,-1.9300734111580882
mp-779519,Ba4Hf3O10,-3.679772133235295
mp-30604,DyGa,-0.7493726575
mp-755315,BaTl2O4,-1.6431717595238111
mp-560339,Ca2Zr(SiO3)4,-3.449158389210526
mp-22780,BaIn2Ir,-0.36466235958333204
mp-2500,AlCu,-0.24248409
mp-29175,Ca2AuN,-0.9235060309374991
mp-20357,Ce2InPt2,-1.015605245333328
mp-554736,CaB2(H6O5)2,-1.786347540133333
mp-505166,ErCu(WO4)2,-2.3839313258333332
mp-20937,Cr3C2,-0.09858621249999801
mp-19718,CeInAu,-0.6102294155555561
mp-758225,Bi10(Pb2O7)3,-1.566915397162162
mp-755878,Cu6OF11,-1.703468717222223
mp-773003,Er2P4O13,-3.13462465018797
mp-625909,Ba(H2O3)2,-1.296789230454545
mp-560265,CaCO3,-2.679476143
mp-27499,BaTeS3,-1.189533620333334
mp-6504,BaMg(CO3)2,-2.5572573115
mp-560874,BaPb2C2(O3F)2,-2.347954051538461
mp-20838,CaIn4Ir,-0.467623379166667
mp-27600,Cd3(PO4)2,-2.2233575910989
mp-772790,Er(Bi3O5)4,-1.753426801515157
mp-18891,BaV6O11,-2.617085703333332
mp-14385,Ba3Tm(BO3)3,-3.315729301302068
mp-550,Al12Mo,-0.113242641538461
mp-600156,H22RhC3(N3O4)2,-0.8899466449374991
mp-4433,Ce(SiIr)2,-1.051160681999999
mp-555846,BaAlF5,-4.035548594285713
mp-541715,Ba3GaP3,-0.94679452734694
mp-1018701,EuSnHg,-0.6551769958333391
mp-703568,BaH2(SO4)2,-2.074808110192307
mp-861735,AcMgTl2,-0.242557518541673
mp-554040,CuSeO4,-1.009855195807296
mp-558088,AlPO4,-3.095023691236772
mp-560821,Ca2SiO4,-3.43918600095238
mp-696815,AlH4NF4,-2.19714858625
mp-769571,Ba2Ta2O7,-3.402772094969696
mp-569060,Cs2PSe5,-0.777240616661085
mp-14864,Cs2Ti(PO4)2,-2.896347842840722
mp-655147,Ba11(Cd4Bi7)2,-0.592350636060609
mp-631514,AlB2Pb,1.762802246549995
mp-754410,CaTm2O4,-3.816448048214287
mp-635469,CeCuSO,-2.250206888124999
mp-754826,CsScO2,-2.976672738663793
mp-553248,CsLaNb2O7,-3.194785346332288
mp-567942,Cs2ReCl6,-1.558619941944445
mp-31003,B10H13I,-0.105961546319444
mp-4730,Ga2HgSe4,-0.600496146250001
mp-20953,CeScS3,-2.315307633187498
mp-505396,CsNa3PbO4,-1.591488129032566
mp-705300,Cr(PO3)5,-2.344257215867347
mp-5976,Dy(CoSi)2,-0.7897868223333311
mp-1013703,Ca3BiAs,-0.469057760416669
mp-556297,FeS3(NCl2)2,-0.481889933374999
mp-996977,AgAuO2,-0.43529505916666605
mp-359,Cu3P,0.009897511130953001
mp-561027,AlPO4,-3.108467533273808
mp-11654,BAsO4,-2.083604793333333
mp-2741,CaF2,-4.22225448
mp-643070,Ca4Mg3H14,-0.5051766086904751
mp-19143,BaCo2(AsO4)2,-1.966875552307692
mp-30507,CeIr5,-0.365940813333336
mp-626735,BaH4O3,-1.761972936249999
mp-624191,CuBiPbS3,-0.6030350574999991
mp-776418,CaGd2O4,-3.641061515714286
mp-9130,CrSbS3,-0.7856886109999991
mp-1019525,Ba3ZnB5PO14,-3.017289100228173
mp-674646,Ca4Bi6O13,-2.116124018043479
mp-680536,Ce5Ir4,-0.7244636658333311
mp-30488,CdHg2,0.026849116666667002
mp-861906,BaNa2Mg(PO4)2,-2.95782266478888
mp-568315,CdCu2,0.009884054999998
mp-18733,AlTl(MoO4)2,-2.203208559444446
mp-997037,CdAuO2,-0.8689751199999991
mp-675739,Ce5CuSe8,-1.853594075624998
mp-27861,Ce(Re2Si)2,-0.444471895714286
mp-14091,AlAgSe2,-0.7432121020312501
mp-1009730,Ca2Sn,-0.6363162533333301
mp-9304,DyCuSeO,-2.265136002252602
mp-15395,CsBePO4,-2.868731574542575
mp-10905,Al3Pt2,-1.102624861999999
mp-4744,Ca(NiAs)2,-0.661425000999999
mp-560577,BaCaCrF7,-3.770805165749999
mp-1008376,CeH3,-0.574761561562498
mp-20355,Ce2CoSi3,-0.613003851666665
mp-571376,Dy4CdCo,-0.23053100569444002
mp-680148,CdI2,-0.824943856499999
mp-18830,Fe2PO5,-2.145798818705358
mp-768345,Ba2B2O5,-3.134206962314815
mp-773102,Ce4YO9,-3.908052950357143
mp-28650,CsBr2F,-1.485572966163793
mp-767410,Bi6P2O15,-1.9399013045341622
mp-641575,Cr21(WC3)2,-0.084368898620686
mp-4979,AlCuS2,-0.963132853906248
mp-29276,Cd2P6O17,-2.451668246914286
mp-676665,Ba4Ta2TiZnO12,-3.27615508615
mp-684713,Al2O3,-3.223608216
mp-542934,CeMg2Cu9,-0.114479988645832
mp-777476,CrFe2(PO4)3,-2.379570877440475
mp-560136,Cu3B4Pb2O11,-2.006256045833331
mp-19474,Ba2V2O7,-2.922540033863607
mp-8836,CaAlF5,-4.010018601428571
mp-753176,AgCO3,-1.233628131333331
mp-504751,AsHPbO4,-1.641524899107142
mp-554706,AsSe(ClF2)3,-1.882062454531249
mp-27424,BaCu4S3,-0.8240477865624981
mp-628617,Cs4K2Cu(SiO4)2,-2.269421870477687
mp-23643,Cd5P3ClO12,-2.179083453520407
mp-3943,BaTi2O5,-3.509142515208333
mp-557614,Cd(PO3)2,-2.419461252003956
mp-28563,CsAsSe2,-0.8590315242106681
mp-768337,CuReO4,-1.690862030694444
mp-554273,AlPO4,-3.107808355565475
mp-8432,CaCuP,-0.9806242109920641
mp-757727,BaB2H2O5,-2.554731680083334
mp-30174,Ca4Al51Cr7,-0.146165152580644
mp-706243,Al2Si3H8(NO5)2,-2.198597497500001
mp-626103,Al(HO)3,-2.029360990892857
mp-28159,As(BrF2)3,-1.6685016422500012
mp-30751,Al13Co4,-0.35372664161764505
mp-7127,Ba2YbTaO6,-3.509662673483333
mp-542117,Cd3Se3O10,-1.373679018564463
mp-19198,CoSO4,-1.735997209583334
mp-13446,Co2P,-0.38518074488095305
mp-770846,Ba3Sn2O7,-2.668888976666666
mp-559459,CsInS2,-1.178435854531249
mp-567305,CeAl3,-0.45864147125000004
mp-20669,Ca2In,-0.46135852916666603
mp-3451,BaVS3,-1.669534512499999
mp-568728,Er2CoSi2,-0.7479458880000011
mp-771825,Er2TiO5,-3.862720507916666
mp-2028,Be2Nb,-0.18998123333333303
mp-2965,Ce(MnSi)2,-0.630216267793105
mp-1194,CdPt,-0.287571474999998
mp-18769,CeVO3,-3.225797496499999
mp-865159,Dy2AlZn,-0.42318652125000206
mp-5091,Dy(Al2Fe)4,-0.42996655782052
mp-554359,Cs2Si3SnO9,-2.869980218954023
mp-12695,CaMg2Ni9,-0.157543969999999
mp-1966,Cu3As,0.0029220999999990003
mp-28692,Cs2CuF6,-2.1812346388888892
mp-7368,Dy2Se3,-2.162599036937499
mp-22719,Ba2NdCu3O7,-2.155610362499999
mp-571162,Ca3(GaN2)2,-0.945776336666666
mp-13056,Ba2LaTaO6,-3.506252752233334
mp-1391,Ag2F,-0.8383200133333321
mp-9478,BaSi4O9,-3.288611039285715
mp-32800,Ac2S3,-2.4930635934375003
mp-556602,Ba3BiRu2O9,-2.200640857333334
mp-769399,BaTa4O11,-3.392521305583331
mp-14384,Ba3Ho(BO3)3,-3.305286329843749
mp-6695,BaCdP2O7,-2.7924746581168822
mp-19750,BaGd2PtO5,-3.013609235555555
mp-20826,CuTe,-0.0842046275
mp-754008,BaCuO2,-1.877892125624999
mp-997047,AgBrO2,-0.20354682416666603
mp-773069,ErTa3O9,-3.490891200153845
mp-505589,BaYFeCuO5,-2.463047101666666
mp-758934,Dy3Co29(Si2B5)2,-0.399673991340579
mp-605485,Fe2CuS3,-0.49371974583333106
mp-12612,Ba3Ag2,-0.22483739799999902
mp-672235,Co(NiS2)2,-0.6603375671428551
mp-753689,Ba2Nb8O11,-2.589431844523809
mp-643793,Cu3H2(OF2)2,-1.5301407106818181
mp-571125,Ce8Ni18P11,-0.9614010325965241
mp-10555,Ba2LiReN4,-0.963360580104167
mp-19375,CeCrSe2O,-2.070149847937499
mp-27640,Cd(IO3)2,-1.023053216388888
mp-769023,Ba2Y7Cl25,-2.6825634525
mp-672226,BaMnSi2,-0.11379629823275901
mp-1672,CaS,-2.436088926406249
mp-25886,CuPO4,-1.801056533273809
mp-2563,CeSe,-2.048877901171872
mp-765493,Ba2Sb2O5,-2.4892227763888912
mp-766337,Ba6CaI14,-1.9627077535714281
mp-20463,CaPbF6,-3.030607506249999
mp-742859,Fe3P2(HO)16,-1.619417345926641
mp-675102,Ce9GdO20,-3.845663753666665
mp-567918,Ba2Nd7Si11N23,-1.442192821337209
mp-555611,Cs3KRe6C6(S4N3)2,-0.658772646540518
mp-690012,CrPO4,-2.352359293273809
mp-997020,CuClO2,-0.51102649125
mp-4438,CaSnO3,-2.694555046500007
mp-998350,BaZrSe3,-1.842959045406249
mp-505577,Dy3Ge5,-0.7794576968749991
mp-3210,Ca(CoP)2,-0.843527303857136
mp-10437,Ba(CuSe)2,-1.037633488937499
mp-23199,BaCl2,-2.9614528075
mp-997618,BSb,0.273972750416668
mp-24316,CdP2(HO)4,-1.375165402207791
mp-780519,Fe3(OF2)2,-2.1784519927777772
mp-12008,ErCdCu4,-0.244247275
mp-866279,CaCdPd2,-0.557560404999998
mp-16363,CoAsS,-0.468848525104166
mp-676609,Ga6SnTe10,-0.571366083333332
mp-9149,Er3P4Pd7,-0.9912715206122431
mp-574928,CsPH3O3F,-1.94040505283867
mp-18341,ErPtF7,-2.816598800925924
mp-504587,Fe9Cu9S16,-0.5068481223529401
mp-23951,Cs(BH)3,-0.34196713360222003
mp-3597,BaRuO3,-2.1901550725
mp-36526,AcOF,-4.159415700833336
mp-571093,BaAlSiH,-0.45983012531250006
mp-684898,Cu18S11,-0.158733556641521
mp-5782,AlAgS2,-0.904003048906249
mp-754363,Ba2HfO4,-3.536360435714286
mp-29415,Cd3PCl3,-0.8829669564965981
mp-6795,Ba5Ho8Zn4O21,-3.257222851184209
mp-557084,Al2CuSi2O7F2,-3.088115564285714
mp-20482,EuAgP,-0.890965169325397
mp-36866,Al2CdO4,-2.820343855714285
mp-556589,GaH20C2S2NO14,-1.2147708215625
mp-3934,Cu3PS4,-0.36257831302827204
mp-4431,Ag3AsS3,-0.156706858705354