material_id,formula,formation_energy
mp-570727,SbCNCl6,-0.43631979452545505
mp-29685,RbAg5Se3,-0.45448120031828804
mp-774299,Li8Mn5Fe3(BO3)8,-2.438931494992816
mp-22639,U(NiP)2,-0.757580543857143
mp-983126,HoTmZn2,-0.348191121249999
mp-21975,In4Ag9,-0.054241077115385006
mp-764000,Li3CoOF3,-2.591974620625
mp-675284,Lu2TiO5,-3.801601771770833
mp-760825,LiCu3F10,-1.680459395833332
mp-28813,Si3CCl8,-1.110504679894738
mp-6114,La3Ni2B2N3,-1.143256654833334
mp-4014,Pr(CuSi)2,-0.553462628333333
mp-762657,LiFe(PO3)3,-2.503628519447278
mp-615420,U3CuO10,-3.195235199285712
mp-771988,MnCo(PO4)2,-2.181632237545839
mp-1013794,Na3Co2(GeO4)3,-1.654868050081896
mp-9517,SrTiN2,-1.608530592291666
mp-546672,LaBi2IO4,-2.301724320000001
mp-510076,Rb7Au5O2,-0.6940673616071451
mp-3732,Ti2CS,-1.376848013541666
mp-27661,U2Cl5O2,-2.7038389922222192
mp-779754,Na5Ni2As(CO4)4,-1.7581557272998771
mp-707459,Na2ZnP2(H5O6)2,-1.833622656186826
mp-757967,LiSn4P7O24,-2.414981431967593
mp-30878,TbTl,-0.340500640000003
mp-978258,MgTa,0.34884928133333304
mp-20226,UGeIr,-0.589377499166667
mp-5414,NaSbS2,-0.795515903906251
mp-756570,Rb4SnO3,-1.521760654374999
mp-3435,Nd3Cu3Sb4,-0.8819578227499981
mp-669376,KU2F9,-3.7804509081041653
mp-29791,Nd4PdO7,-3.284427078333331
mp-559971,LiS2N(O2F)2,-1.7435130416666662
mp-12515,LaZnSbO,-1.9815350675
mp-975880,PrSmMg2,-0.08087543916666601
mp-11755,Lu6Sb2Mo,-0.6253708799999971
mp-3213,LaMnSi2,-0.68145861987069
mp-684018,SrB8O13,-2.937962776458333
mp-11548,YbTlPd,-0.7129836205555571
mp-981213,TbSmIr2,-0.7216893579166661
mp-631408,KSi2Hg,0.537730872421875
mp-16638,Nd2MgCu2,-0.18792694099999702
mp-4405,Rb3AuO,-0.8160150875000001
mp-705480,MnF4,-2.32923356191954
mp-29515,PH2F3,-1.846990989523809
mp-627439,Mn3GaN,-0.442840044439657
mp-757042,LiSnPO4,-2.40891046292517
mp-570180,YbPt,-1.464130011249999
mp-5427,Mg2P2O7,-2.977209820616883
mp-752651,Li4Ti2Nb3Cu3O16,-2.507517216785714
mp-18690,SmF3,-4.259454267291666
mp-11925,RbTa(CuSe2)2,-0.986762766776041
mp-699473,Li2B12H26O7,-0.7380256718971621
mp-23021,K2ReBr6,-1.335880026333332
mp-30024,Sr(AlCl4)2,-2.27181765215909
mp-29973,SrN,-0.668827469375001
mp-775349,Li2Cr(Si2O5)3,-2.990837399756945
mp-988,Si3N4,-1.320943462857144
mp-764043,Li3Mn3NiO8,-1.184982227586207
mp-556631,KZrSnF7,-3.442278692225
mp-851118,KNa2LiZr2(Si2O5)6,-3.21811263486129
mp-1880,SbF3,-2.685827188749999
mp-13285,NaPd3O4,-1.076333452047413
mp-28341,LiGaCl4,-1.530478074027777
mp-974951,Rb3Hg,-0.043141508750001
mp-775206,VSb3(PO4)6,-2.39521648670168
mp-769321,ZnSeO4,-1.261168915390624
mp-765741,Li4Mn2V3Sb3O16,-2.223952859971263
mp-756869,K2TbO3,-2.3185160993611102
mp-21617,In2Cu2O5,-1.481254836203704
mp-866669,Sr17(Li2Hg3)3,-0.32721123304687605
mp-19463,Na5Tb(WO4)4,-2.393462013983201
mp-653981,Zr6NiCl15,-2.05875775227273
mp-1018024,MnFeCoGe,-0.172998520732758
mp-22163,NaSn2(PO4)3,-2.528463436405992
mp-1298,KAu5,-0.25602832062499603
mp-761524,MgCoO3,-1.826363841
mp-561072,Sr2DySbO6,-3.110212678666666
mp-771717,Mn2O3,-1.925717109172413
mp-569683,InAu3,-0.149090706249999
mp-762287,Li2V5O10,-2.455591580980392
mp-5614,Li3BS3,-1.253047447023808
mp-4922,MnAlNi2,-0.40436941198275805
mp-625501,NaH9O5,-1.316785443508621
mp-676934,KCaNd(PO4)2,-3.249645219284798
mp-630329,PbSeO3,-1.45657471196875
mp-773044,LiCuO2,-1.425870712083333
mp-570843,Tm(GeRh)2,-0.853134554000002
mp-758597,K2TiSi3(HO5)2,-2.834718550574074
mp-775804,Li3SbS3,-1.110837968571428
mp-697121,MgZn2H12(BrO)6,-1.355215636666666
mp-7250,Nb6Co7,-0.150089824615384
mp-754266,Li8TiS6,-1.492056632333332
mp-689981,MnPO4,-2.349148325428981
mp-571506,TmAlSi,-0.6579492866666681
mp-762197,RbAl(H2N)4,-0.532095090892857
mp-33056,Rb6C5,2.104220413636363
mp-6278,Zn2Cu(AsO4)2,-1.630548818846154
mp-766480,LiCuS,-0.8359936381944431
mp-764594,Li4Fe3OF8,-2.661532711145834
mp-858,TmAl2,-0.5705990833333341
mp-29423,TlFeBr4,-1.02633816638889
mp-754352,Na3CuO2,-1.327947006522987
mp-30498,TbCd3,-0.24984800041666502
mp-568466,LiInSn,-0.179724341666665
mp-752666,LiAg2F4,-1.765260626309522
mp-542391,Tm(SiNi5)2,-0.44823435269231204
mp-606675,MnGaNi2,-0.423747481656405
mp-6327,LiAlSiO4,-3.202781104285715
mp-1016932,MnZnO3,-1.258271146586206
mp-557857,SrLi2Nb2O7,-3.014817200138888
mp-11248,LiAu3,-0.38172735166666105
mp-10113,ScBIr3,-0.659335980833334
mp-1729,SmFe2,0.022926520000000002
mp-775015,Li2Cr3NiO8,-1.9943518033333332
mp-20067,Na5OsO6,-1.7899567564080452
mp-9235,LaNiSb,-0.946264118333329
mp-770639,Y2W2O9,-2.916366752499999
mp-765688,LaAl12O19,-3.407997023124999
mp-972084,TbMn12,0.00865639960212
mp-569384,PrMgSi2,-0.47864963416666506
mp-1013534,Sr3SbN,0.45508603700000005
mp-6023,Tl2Sn(AsS3)2,-0.5746093356060611
mp-865795,LiSc2Ru,-0.36450625833333206
mp-11329,P2W,-0.35821996865079103
mp-976061,PrGe3,-0.44022125374999604
mp-754664,Li2TiCuO4,-2.384689698750001
mp-22174,Zr3NiSb7,-0.6287328236363731
mp-643902,SnH4(NF)2,-1.155173741111111
mp-686482,K2YTi(PO4)3,-3.088377105882204
mp-10887,HfAlCu2,-0.328564839999998
mp-1449,Pr3S4,-2.308158446607144
mp-19009,NiO,-1.218085299999999
mp-764402,MnFe(PO4)2,-2.37411239393473
mp-29623,SrZnBi2,-0.503327698750005
mp-17730,K2SnO3,-1.9538010669999992
mp-30997,ZrTlF5,-3.488529985119052
mp-556577,Na3Sb3(AsO7)2,-1.924756273824451
mp-778623,LiV6O7F5,-2.71988297122807
mp-600480,Y12Ni6Pb,-0.345831381052629
mp-32529,V3(PO4)4,-2.4890330636335403
mp-549487,Sr2Cu(IO)2,-2.040133024285713
mp-568228,RbLaSi(CN2)4,-0.7139393675000001
mp-5621,NbCu3S4,-0.847748116249999
mp-1016999,SrGeO3,-2.593071166
mp-865908,Yb2HgPb,-0.476309651874998
mp-555022,LuSeO3F,-2.82308066733507
mp-530600,Li14Ti21O48,-3.221947902610442
mp-8648,TiFeSi,-0.7120907655555551
mp-28559,Na6Be8O11,-2.547090591731034
mp-8931,Rb2SnAs2,-0.407228313
mp-16557,SrAlF5,-4.042098668035715
mp-5444,Y3Ga5O12,-2.952501735625001
mp-21701,UFe5Sn,-0.025121321785713004
mp-4648,KTeF5,-2.734220906988093
mp-998592,RbCaI3,-1.8151626565
mp-759636,Nb5O12F,-3.021156121944444
mp-755594,ZnReO4,-1.871294367083333
mp-19510,V2Cd(PO5)2,-2.48092574045238
mp-1883,SnTe,-0.265049880000002
mp-7092,TiSi,-0.785364454583332
mp-20320,InTe,-0.384689124999997
mp-7959,KErO2,-3.138044281812497
mp-684733,Ti10O11,-2.8561154989682533
mp-999484,YTi,0.36447533000000104
mp-1019279,SrZnSn,-0.606022678333336
mp-625526,Te(HO2)2,-1.299081003452381
mp-559560,Nd2Ti3(ClO4)2,-3.498646601166666
mp-757310,ZnP2H14C2(NO)6,-1.000711493122119
mp-752537,Sr2HfO4,-3.555449493571428
mp-16501,HfAlPd2,-0.852085152499999
mp-758073,Re6Pb6O19,-1.77286048596774
mp-22921,TbBi,-1.1017431275
mp-33338,LiGa3Te5,-0.686704689629629
mp-5050,Rb(OsO3)2,-1.662312743611107
mp-11307,MgCd,-0.094631828333332
mp-570901,Yb2Au,-0.7852546008333351
mp-568940,Y(NiP)2,-1.000052137857142
mp-1932,Nb3Os,-0.28167148750000204
mp-18032,Nb5Ga4,-0.41783721055555606
mp-759743,Sb5O7F,-1.802687994230769
mp-3416,Na3AlF6,-3.4024626925
mp-696057,LiMg4H13Os2,-0.325165663979166
mp-770663,Li2FeBO4,-2.292627288229166
mp-37312,Na(La2Se3)4,-2.248723237595443
mp-559911,V4S9Br4,-1.13397431720588
mp-19806,USiIr,-0.7042722033333341
mp-758238,Na2ZnPHO5,-2.257447842865148
mp-982869,PmYAl2,-0.42511474937500104
mp-775493,Li2Fe3WO8,-1.946543147440476
mp-556012,NaCSN,-0.44272177757812603
mp-570596,Nd2Ni17,-0.16236477342105102
mp-768020,Li2MnSiO4,-2.670455061824713
mp-850275,Li3SbS4,-1.028366944999999
mp-757685,Li2Cu(SiO3)2,-2.562822862424242
mp-29309,Si2H6S,-0.1387077065625
mp-773198,Mn5Fe3O16,-1.552759837902298
mp-10091,KV(CuSe2)2,-0.929177158953124
mp-733998,TbH12S2NO12,-1.629999222738094
mp-758841,LiCu2F7,-1.8493552601666612
mp-767719,Li4Ti2Mn3Ni3O16,-2.123967623349754
mp-20258,GdIn3,-0.514167974999999
mp-27749,K2Sb4S7,-0.6407888023798151
mp-33088,ZrO,-2.4818551725
mp-1743,Mo5As4,-0.31978003111110903
mp-556310,LiAlS3(Cl2O3)2,-1.764510131555555
mp-2265,TbCo2,-0.164759055555557
mp-973940,LiCd3,-0.176872759166665
mp-760060,Sb(SO4)2,-1.684723440113635
mp-17451,Nd3ReO7,-3.2388336381818172
mp-973969,HoTa3,0.379599437500004
mp-768883,Sn2(SO4)3,-1.756875931617646
mp-770101,Li5MnO5,-1.987118803599791
mp-1020106,LiB(SO4)2,-2.120887938541666
mp-11300,TiCdHg2,0.036523200208335
mp-29403,GaCuI4,-0.6676176529166651
mp-760408,LiZnO2,-1.640747519583333
mp-767699,LiVF4,-3.172018910972222
mp-542251,LaCdAu,-0.6587759416666631
mp-30392,Li2InAu,-0.5411552658333321
mp-555594,ZnS,-0.962455199739583
mp-978254,La3Ag,-0.027517774999996
mp-3831,SmPO4,-3.467471649523798
mp-762510,Li4Ni5Sb3O16,-1.662304684047619
mp-756751,Tm2Nb2O7,-3.408607786818182
mp-1014204,Sn5(S2Cl)2,-0.5923213417045441
mp-556325,TeAs(ClF2)3,-2.000311659015151
mp-569261,Pr7CoI12,-1.466068817583333
mp-766548,Li4Ti11O24,-3.301994975641025
mp-758168,NaZn2HSe2O7,-1.5671358559474462
mp-1020056,LiCa3Si2N5,-1.299695935075759
mp-16508,Lu3Al2,-0.37816298399999304
mp-18660,Sr(ScTe2)2,-1.611033553809521
mp-1102,LuN,-2.215705882708334
mp-14797,RbPt2Se3,-0.884477465755207
mp-555488,Na5AlP2(O4F)2,-2.845706435528643
mp-33461,Li3Mn3O8,-1.9626407702709372
mp-6290,NaInP2O7,-2.580874244984698
mp-764778,Li3MnO4,-1.9814160284913802
mp-21467,TiCo2Sn,-0.371400094583333
mp-705332,LiCoP2O7,-2.2908877802380943
mp-24694,Zn(H2N)2,-0.41502180910714304
mp-2263,ScIr2,-0.76090207833333
mp-554675,SrTa2Bi2O9,-2.813450842119048
mp-13170,KNaGdNbO5,-3.006707322625479
mp-559968,Na2NbAsO6,-2.385238387025862
mp-757144,Rb2H8O5,-1.3606831055000002
mp-865813,YbMgTl2,-0.217163815000006
mp-6426,Na2MgSiO4,-2.796526570344827
mp-865546,Yb2AgBi,-0.38564354500000003
mp-10057,VCoB3,-0.6105516375000001
mp-754192,Tm2TiO5,-3.8534538304166692
mp-35,Mn,0.0
mp-770036,Li4Mn3V2Cr3O16,-2.273844357397373
mp-770893,Li4Fe2O5,-1.91489074030303
mp-999438,Nb3Fe,0.209476759999999
mp-7396,Li3Tl,-0.271427114999999
mp-690535,Na(WO3)2,-2.174631444597701
mp-10298,Sm(SiPt)2,-1.078791091999999
mp-11305,Li2CdPb,-0.260679231666663
mp-11171,LiRhF6,-1.983595389583333
mp-582278,Tm4InRh,-0.569057211944449
mp-556968,RbNa3SnO4,-1.850938011848658
mp-769600,LiV2S2(O4F3)2,-2.316865887017543
mp-38807,Y7ReO14,-3.546216060568181
mp-19280,NaCr3O8,-1.903775240531608
mp-770619,Li24Mn11CrO36,-2.182771846350575
mp-5172,Zr2(Ni7B2)3,-0.37251527155172404
mp-768232,Rb3SbO3,-1.780475274285713
mp-862318,LiAl2Ni,-0.489748536666665
mp-541938,Nb6Co16Si7,-0.517709478965516
mp-1005689,Sm6GaCo2,-0.213676169166666
mp-567528,Li17(AgSn2)3,-0.35876891621794804
mp-773161,NbV5(PO4)6,-2.622512633273809
mp-19734,MgPbF6,-2.853937199374999
mp-971831,Tm3Th,0.041352812499994
mp-644419,LiHS,-0.9352390861111101
mp-770521,Li4V3Fe3(WO8)2,-2.204269110833333
mp-6211,RbLiSO4,-2.30058688797619
mp-569352,NdTl3,-0.31272899687500705
mp-1371,Sn3Pd,-0.202760203749999
mp-865140,MnGaRu2,-0.36268854362069103
mp-764367,V2OF5,-3.005368399062499
mp-10933,Nd2TeS2,-2.178817990124997
mp-568539,LaInRh,-0.7203787472222211
mp-2231,SnS,-0.47208111515625006
mp-21661,YSi3Ni5,-0.6879636691666421
mp-756187,Li2FeS2,-1.089106984333333
mp-567498,Rb2NaTmCl6,-2.466064262637931
mp-30854,UPt2,-0.9425862383333291
mp-556049,Sr4Br6O,-2.649926838181826
mp-979260,Sc6Ga16Ru7,-0.5184529931034451
mp-28177,NaSbCl6,-1.104572068749998
mp-16996,Li3GaSiO5,-2.688300978999999
mp-767440,Li2MnFe2(PO4)3,-2.433967139676313
mp-5048,LiGaTe2,-0.839710808541665
mp-755184,Sm2Se2O,-2.782884997437501
mp-754210,Li6FeS4,-1.282259547727272
mp-30496,SrCd,-0.30431180499999905
mp-977138,NaTc3,0.7614378846120681
mp-989621,LaOsN3,-0.6123631460000011
mp-9383,SrHfN2,-1.639650124375002
mp-760927,NaTiPO5,-2.981015462731937
mp-756702,PrBrO,-3.222717073888888
mp-30753,LaPd5,-0.5971245724999981
mp-341,PbF4,-1.990905017999998
mp-976763,NiAsO3,-0.5246274505
mp-568370,La3(SiNi)4,-0.7170075122727271
mp-850532,LiSn2(PO4)3,-2.513471262070106
mp-21430,YbPb3,-0.273653551249999
mp-18819,Ni2P2O7,-2.219231161525974
mp-631349,ZnTcMo,0.680993743412704
mp-570240,La14C14Cl9,-1.2493292581081081
mp-555366,LiHo(PO3)4,-2.9275779262169292
mp-27048,LiCuPO4,-2.160609169710883
mp-695515,Na13Zr8Si9(PO16)3,-3.1315879434797482
mp-15141,NaZr2ZnF11,-3.63565080175862
mp-979418,Sm2(ReB2)3,-0.548888377045453
mp-865802,LuRh3,-0.6454291841666621
mp-637255,Ti2Sn3,-0.300269175166667
mp-753979,Sn2P2O7,-2.319788408571428
mp-775466,K2InSi4HO11,-2.810062062232456
mp-775987,Ti3Fe2Ni(PO4)6,-2.739388042440476
mp-17035,K3Sc(PO4)2,-2.947518911383502
mp-5475,NaTaN2,-1.139296941208332
mp-862735,SmAg2Sn,-0.387455830833332
mp-542178,Nd2Zn15Ge2,-0.22192212710526302
mp-17874,Sm2Cu(SeO3)4,-2.005956999177631
mp-976742,MgPa3,0.1994692325
mp-667,Tl2S,-0.5040204191666731
mp-21670,ThInCu5,-0.20713471595238
mp-11871,HoNi,-0.46061407999999704
mp-862740,Sr2TlCd,-0.377497783333335
mp-27173,P4Ru,-0.514703536714284
mp-28079,Na2Mn2S3,-1.220342629271858
mp-1836,TlSe,-0.37315311578124905
mp-865502,YAgHg2,-0.38327322500000305
mp-7736,LuNiSn2,-0.513926880833333
mp-554815,LaSc3(BO3)4,-3.471802350583333
mp-973646,Lu2ZnHg,-0.46607875895833206
mp-23831,NdHSO5,-2.522781749843751
mp-11621,ZnNiSb,-0.295538423333332
mp-542903,ZrPbO3,-2.850313608
mp-540811,Rb2SbBr6,-1.487450571944444
mp-779308,SrLiLa7(CoO8)2,-3.124366550308643
mp-28590,Hg4As2I3,-0.287033417638891
mp-1018822,NdZnIn,-0.447289368055557
mp-695648,KNa6Al7Si9O32,-2.902049742827743
mp-4229,Nd(AgGe)2,-0.47072440949999905
mp-557920,Zn3(PO4)2,-2.373133279945054
mp-570963,TaCr2,0.07452002505555301
mp-27523,VPCl9,-0.9839660614069261
mp-10208,NiMoP2,-0.6115108464880941
mp-865124,NaSr2In,-0.21268963951149303
mp-29684,La5Sb3Br,-1.361890107777778
mp-764423,Li2CrF4,-2.954466272023809
mp-778877,Li5InO4,-2.047825652333332
mp-3904,Mg2GeO4,-2.7410589342857152
mp-22575,Sc3As2,-1.303475056499999
mp-769560,Li2TiV3O8,-2.6620146475
mp-757886,NdHS3O11,-2.166160542734374
mp-2931,Li2TiO3,-2.981954403333334
mp-775788,Hf2N2O,-2.446592515
mp-770369,LiNiCSO7,-1.752789260075756
mp-30408,MgAu3,-0.398330083125003
mp-1408,MgHg,-0.19722851375000103
mp-778811,Li2Fe(BO3)2,-2.2984636386363633
mp-764722,Li3Fe8(BO3)8,-2.248558401705426
mp-975614,Nd3AlNiS7,-1.8454560083333322
mp-567909,Pr(NiSn)2,-0.48377720433333704
mp-38200,Li2PS3,-0.974264479801586
mp-7930,Zr3(Cu2Si)2,-0.512764974444443
mp-757098,Li2Fe2S3,-0.8277495884523801
mp-16524,ScAlPd2,-0.960797691249999
mp-774472,PrSO,-2.918105473888887
mp-648053,NaPO3,-2.606430062204433
mp-757588,Y11Ta5O28,-3.735681241515151
mp-780864,LiMn2P2H5O11,-2.009887304034814
mp-630836,Nd3(GeRu)2,-0.6809910932142841
mp-973933,NiN,0.31252968416666604
mp-560039,NaY(SiO3)2,-3.321207601137931
mp-542013,Rb4Zr3Se14,-1.346294261562497
mp-865340,Tm2HgOs,-0.41111740437499805
mp-559492,Tl(NiS)2,-0.5258413216666671
mp-780308,Li5Mn6(BO3)6,-2.482414127407225
mp-978083,Pr2ZnAg,-0.260080206249999
mp-17148,Na3GaSe3,-1.160565190167024
mp-557457,TmSeO3F,-2.826438744557293
mp-2809,Sb2S3,-0.287243025187498
mp-2011,UP,-1.2563255114880931
mp-31370,Na2S2O5,-1.921818914195402
mp-559127,K2Zn2Si8O19,-2.99216316966129
mp-758178,Li2Cu3(CO3)3,-1.54720642009804
mp-780406,Lu4Al2O9,-3.874866770944445
mp-569001,Sr2LiCoN2,-0.639223902222222
mp-16559,KHo2CuSe4,-1.728018774578123
mp-554195,Sb3As2S14(IF8)3,-1.652918828152172
mp-998420,KCrCl3,-1.6589754152499991
mp-11992,LiLa2IrO6,-2.774933723833334
mp-5137,Zr2SbP,-1.180371373660714
mp-14890,Rb9Fe2S7,-0.9900879012499991
mp-772582,Sr3W2O9,-2.729680524642858
mp-21591,ZrCrSi2,-0.571565480416666
mp-761034,Hf5N5O2,-2.360091210416667
mp-540456,LiCr(PO3)3,-2.566124299447278
mp-779062,Li3V4(OF3)3,-2.949508779473685
mp-753564,Sn3(OF)2,-1.9835474089285712
mp-675748,Zn2GeS4,-0.8779191107142841
mp-638690,Li2Y5In9,-0.5869304119270811
mp-961665,MgScGa,-0.279399509166667
mp-29754,SrLiN,-0.6219861818055551
mp-755314,Hf2N2O,-2.460121802333333
mp-774407,Hg2W2O7,-1.7097603472727272
mp-9961,Ti2CdC,-0.610056893333332
mp-705417,Fe11O12,-1.48173293173913
mp-1918,FeRh,-0.043849814999998
mp-10732,ThTaN3,-1.507574309216659
mp-15113,Na2Si3O7,-2.901369190229884
mp-567408,Sm(SiOs)2,-0.803066927999998
mp-568934,Ti4AlN3,-1.638582450364582
mp-505573,Zr3V3C,-0.260492084499996
mp-31185,MnAlFe2,-0.19067050448275802
mp-22937,Na4I2O,-1.469234532931035
mp-673098,LiBi(PO3)4,-2.524406538439153
mp-540633,RbNb(GeO3)3,-2.3953242337500003
mp-743640,Li3La8Ti9Cr3O36,-3.424161775593222
mp-974972,Rb3Hf,1.210186479375
mp-20247,Dy(Fe2Ge)2,-0.29037623595237905
mp-2732,PRh2,-0.825363619325396
mp-630867,RbLiNd2(MoO4)4,-2.514043368993056
mp-3462,TmSnAu,-0.8328357016666691
mp-973830,KErO3,-2.325421858449998
mp-21166,SrCaPb,-0.58163957583333
mp-787,U3P4,-1.2122840667006791
mp-31118,SmScO3,-3.921264459499999
mp-978529,SmTmHg2,-0.562760513749999
mp-2800,USi3,-0.297588547500001
mp-567596,In6Se7,-0.638197120905451
mp-770519,Li2AlVO4,-2.697788330520834
mp-773711,Ti2Sb(PO4)3,-2.735729106421958
mp-978846,SnI2,-0.719930568333338
mp-637263,Zr5AlNi4,-0.460198583999999
mp-1013912,LiCo3P3O13,-2.045932699613094
mp-556903,HgSb4C2(OF11)2,-2.322365716693549
mp-2784,Na2Te,-1.127802620000001
mp-504968,RbFeCl4,-1.649444735833333
mp-312,ThIr5,-0.47705074166666805
mp-4050,Eu(AsRu)2,-0.6950173219999991
mp-631452,NbCrW,1.030356558333338
mp-24625,KHCN2,-0.45674484669999904
mp-610631,LaGeAu,-0.8769571700000041
mp-13376,SmZnRh,-0.6844561275000011
mp-637,YB4,-0.6594823535000001
mp-2851,VSb2,-0.06083948499999701
mp-14115,LiRhO2,-1.555824928333332
mp-973771,Lu2MgHg,-0.22908378020833503
mp-772153,Na3CuAsCO7,-1.8366424839721471
mp-7372,ZnAs,-0.12644977437500102
mp-754661,INO3,-0.5867303305
mp-557591,SiO2,-3.201431672638889
mp-759095,LiSn2P4H3O16,-2.292165630602106
mp-3998,LaTaO4,-3.707138872055574
mp-557656,RbNaSi2O5,-2.904253888208812
mp-998241,MnInF3,-2.50274182991954
mp-1018009,Li2MgSi,-0.210014079166666
mp-22691,InSe,-0.6763020120312461
mp-5459,Nd2TeO2,-3.242909266333329
mp-684730,EuTi2CdO6F,-2.780581758333333
mp-984107,K3IO5,-1.509241483527778
mp-567097,LiCu2Ge,-0.182762122083333
mp-772918,Sr3TeO6,-2.695199452291666
mp-4742,Ho(GePd)2,-0.7826105309999981
mp-774579,LiTi2(PO4)3,-3.005972689523809
mp-4174,HoNiSb,-0.962841218333332
mp-6296,K6Cd4Sn3Se13,-1.005795382268028
mp-978,Sr2Sn,-0.727466508333333
mp-1001612,LuSi,-0.8594091058333321
mp-697811,Li2FeP2O7,-2.544903501954365
mp-560239,K3Ti3(PO4)5,-2.978975377982719
mp-850996,Fe4O7F,-1.4596677554166662
mp-561428,NiF3,-1.9116055650000001
mp-999143,SrPd,-0.605112284999998
mp-622693,Mn2NiO4,-1.728142116551725
mp-773674,Li4Ti3V3(FeO8)2,-2.654230634404762
mp-31007,Tb5Br8,-1.827995586410255
mp-760805,Li2AgF3,-2.398906324305553
mp-780740,Fe4OF7,-2.403627041249999
mp-10695,ZnS,-0.9625521039062511
mp-867882,SmCdAu2,-0.645947641249996
mp-761057,Sr5Nb4O15,-3.298532114583332
mp-999508,MnSiNi2,-0.467382577727308
mp-756799,Ti2Nb2(CuO4)3,-2.450323868245615
mp-21386,Eu(PIr)2,-1.082179218857144
mp-783910,LiFeBO3,-2.3320978334375
mp-618999,Pr4NiI5,-1.277652909666668
mp-12919,LaPIr,-1.197164449880952
mp-22159,UNiAs2,-0.6046379924999961
mp-694891,KRb2Mo(OF)3,-2.517231013725
mp-14493,Na5InO4,-1.673364823356319
mp-31691,LiCrP2O7,-2.470075303647185
mp-18348,KGaP2O7,-2.6398838842305192
mp-755663,Ta2Pb2O7,-2.724673954060605
mp-20432,Fe2Ge,-0.034206818333333
mp-15204,Tb2Si5Ni3,-0.7596858713333331
mp-849775,Li2Cu(Si2O5)2,-2.756935452745098
mp-978967,SrDy3,0.21214723583333403
mp-769047,Na4Bi2As(CO4)4,-1.7982986486302681
mp-763193,Li2VO2F,-2.623280981611112
mp-697133,Cs2CaH4,-0.439033130714286
mp-755864,TiCu(PO4)2,-2.588273093968253
mp-31493,RbGa3,-0.16880684916666602
mp-865248,TmNbRu2,-0.385074432500005
mp-983604,Er3As,-0.51888325645833
mp-556662,SiO2,-3.204975310833333
mp-21345,LaGe,-0.933181712499997
mp-978517,SmCdPd2,-0.6678116687499991
mp-8623,K2Te2Pt,-0.9639222794999991
mp-17429,KHfPdF7,-3.140325744225001
mp-779354,Fe6OF11,-2.469156412777777
mp-10623,ThSbRh,-1.1780022699999981
mp-773427,Li4Mn3CuO8,-1.927849628570403
mp-8507,Sr(P3Pt2)2,-0.91996202525974
mp-779863,Hf2N2O,-2.528429986250001
mp-400,NdAl2,-0.5581772608333321
mp-754834,Er2TeO2,-3.257965529333332
mp-22115,TbSbRh,-1.069665752222223
mp-28858,Na2HgS2,-0.9523429018017261
mp-31049,NdO2,-3.1596579241666642
mp-770555,MnPO4,-2.360049553345648
mp-780134,Li4Ti3V2Cr3O16,-2.766862809404762
mp-27255,Ga2TeS2,-0.686490629125
mp-775995,Mn3CrSn2(PO4)6,-2.416958329212506
mp-7817,YB12,-0.259459963846154
mp-25881,LiBi(PO3)4,-2.526655768855821
mp-6655,Y2Be2SiO7,-3.561541379999999
mp-977571,MgRh2Pb,-0.31581104124999904
mp-568338,Sr2GeN2,-0.7988028685
mp-29641,GeSb4Te7,-0.366023206805554