material_id,formula,formation_energy
mp-29467,P4(SeO2)3,-1.641778460623283
mp-973353,SbPt3,-0.077053695624996
mp-754223,Ta2CuO6,-2.698968529407406
mp-12029,Li2CuP,-0.646212165327381
mp-6144,Na2La2Ti3O10,-3.412753374868154
mp-999394,Nb3Ni,0.101471164999999
mp-4991,Tb2Sn2O7,-3.026676199848483
mp-770342,Tb2(WO4)3,-2.735281426960783
mp-9498,Nd2C(NO)2,-2.374288112857143
mp-33,Ru,0.0
mp-13451,Dy2Sb5,-0.771230359047615
mp-865580,Li2DyIn,-0.380604869583333
mp-18938,Tl2MoO4,-1.659020907380958
mp-760088,MgTi23O40,-3.379010275494792
mp-8620,La2Si5Rh3,-0.9609648700000021
mp-676985,YbPaO4,-4.097001039999999
mp-720710,K3H2S2NO7,-1.7797158006166671
mp-761148,Ti9SnO20,-3.318146108166666
mp-20037,PrInRh,-0.672986867222222
mp-1016928,MgSiO3,-2.763782162
mp-989561,NaTl2GaF6,-2.650154488554599
mp-28453,CsAuI3,-0.94590951493103
mp-556958,La4S3N2,-2.228839775104164
mp-639478,SiO2,-3.248172124166666
mp-21546,K2CeNb5O15,-3.085411991065217
mp-698647,LiVO2,-2.458060850520834
mp-29500,Ge7F16,-2.25422968
mp-28320,Pt3I8,-0.42926442749999705
mp-556253,Tm2O3,-4.051473884916673
mp-28606,K3AuSe13,-0.38899801248345506
mp-4131,Sc(CoSi)2,-0.752868847
mp-30272,U2Al19Co6,-0.38713690388889005
mp-30179,Mn6Al31Ni2,-0.218562340066313
mp-758504,K2Mg3P4(H5O6)4,-1.97752636534097
mp-783905,NaV2O4,-2.422002038054186
mp-971763,ZnSb3,0.402750873749997
mp-8711,Cs2Li14Tb3O14,-2.331082058362939
mp-977417,NdB2HF10,-3.337575044791667
mp-10446,Sc6NiTe2,-0.7810596537037031
mp-5586,NaErO2,-3.185389837219826
mp-675716,Mg2Zr5O12,-3.6142990534210533
mp-10700,MgNi3C,-0.12982654399999902
mp-762082,ThH10N4O17,-1.3583162041406251
mp-699468,CsAg(BH)10,-0.197545709882919
mp-21681,Nb5Ge4,-0.398226881388888
mp-23622,Sm3Si2ClO8,-3.624159441071429
mp-775374,Li3MnV(PO4)3,-2.612972296842979
mp-753629,Zr2O,-1.990846132222222
mp-989516,Cs2ICl6F,-1.372084801931035
mp-774794,Li5Sm3(SbO6)2,-2.752979859962122
mp-11191,CrSi2,-0.23563400777777702
mp-551283,Na2Cu2TeO6,-1.4894735208568441
mp-1011858,Na2CoP2O7,-2.429034242878694
mp-38008,Li2CdCl4,-1.702749519761905
mp-998428,CsCaI3,-1.8410043884310312
mp-759,La2Sb,-1.079209076666667
mp-559618,NaB(CO2)4,-1.8329163564675701
mp-20122,DyGe,-0.9759053175000001
mp-775997,V3P2O11,-2.509552978861608
mp-29170,Hg(AuF4)2,-1.292650168863637
mp-17439,KSm(PO3)4,-2.916498931156746
mp-755612,DyGaO3,-3.131620863333333
mp-746692,K2Co3P4(HO4)4,-2.168111932347291
mp-709186,K4LiH3(SO4)4,-2.04198448253869
mp-680284,Rb6Ta4S25,-1.143791942480951
mp-569837,Ti3Sb,-0.37725839312500004
mp-753868,SbOF,-2.134663456666667
mp-695808,Ni(PO3)4,-2.173952246680671
mp-977475,ZrInPd2,-0.7542684887499961
mp-567775,La10C4I15,-1.481810344999999
mp-975337,RbF3,-1.456020888124999
mp-18975,Na2SrV4O12,-2.535827691987297
mp-1260,SrPd5,-0.37346798833333406
mp-15577,Pr4Ga2O9,-3.301147007444443
mp-26710,LiSnP2O7,-2.451856788874458
mp-1018053,InCu,0.012688274999998
mp-680058,InTeI7,-0.5840525171759271
mp-865322,UTlO3,-2.9387770976667262
mp-37024,Ho10Ti6O27,-3.7731952359302303
mp-31441,Li2GaIr,-0.47674221583333304
mp-865020,HfMgIr2,-0.83837989375
mp-978796,SmDyIn2,-0.606047383749999
mp-27231,Li2TeO3,-2.021365671805556
mp-755642,Li3VS4,-1.323403744999999
mp-18989,LaVO4,-3.188956035416667
mp-1002122,HfIr,-0.9055590749999991
mp-695829,RbHSeO4,-1.505341897775297
mp-27220,Tl5SbO5,-1.253834989924244
mp-3154,Sm3Sb5O12,-2.629460901000001
mp-22535,HfPbO3,-2.959238816999998
mp-559894,Sb2Te2O9,-1.67374154948718
mp-867822,LiYAu2,-0.7588378091666671
mp-570734,Pr3Pt4,-1.04803470428572
mp-779262,LiFePCO7,-2.066319145270562
mp-768335,Li3(FeS2)2,-0.9817561722222211
mp-770599,Li6Fe2C4SO16,-2.054681120431033
mp-1006127,Pa3Mo,0.211592862499998
mp-560898,NaPr(SeO4)2,-1.970231690644456
mp-22642,Zr2Se,-1.062496986909723
mp-769488,Na5Fe2P2(CO7)2,-2.25475935604729
mp-1020012,Li2Ge4O9,-2.177226214111111
mp-30780,SrMgSn,-0.551921839166668
mp-767600,Li2MnF5,-2.912259631512213
mp-978527,SmDyTl2,-0.351101210833339
mp-775156,LiMnSiO4,-2.583040215002053
mp-764642,Li2CoSiO4,-2.4854565267708333
mp-23794,H4NF,-1.064550205
mp-24076,Y(HO)3,-2.223002106964286
mp-645543,Pr3(Ge3Pt2)2,-0.9113616884615351
mp-643293,SrMgNiH4,-0.515139569999999
mp-974748,Rb3Tm,0.628147774374998
mp-673677,La2Th3O9,-4.168961438214284
mp-1013536,Sr3PN,0.072935280017262
mp-30875,Ti2Sn,-0.366336929444443
mp-1013750,Sn4SF6,-1.98518299900568
mp-14437,RbYO2,-3.011982739375
mp-778721,Li8Mn7Fe(BO3)8,-2.4849015309482763
mp-23056,Sr2BrN,-1.514354432499999
mp-23781,Rb3H(SO4)2,-2.111634234553571
mp-529,SmMg2,-0.067482015
mp-7248,U(Al2Cu)4,-0.21009880000000902
mp-776378,LiCuBO3,-2.020491504953703
mp-9164,ThSiAu,-0.775856483333332
mp-555288,SbS(BrF2)3,-1.864157290454545
mp-626788,ReH3O5,-1.6418869756944452
mp-30351,MgAg3,-0.136111096249999
mp-555100,NbBiO4,-2.518023442083336
mp-752428,Rb2PrO3,-2.180290713611111
mp-771191,Li5Co7O16,-1.477170530238094
mp-21049,GdMg2,-0.095684053333331
mp-5748,HfAlNi2,-0.6473235700000011
mp-7639,Na2CuP,-0.46383814949404706
mp-1022,K2S,-1.247886656770833
mp-698527,SbH3C2(O2F3)2,-1.9129116833593751
mp-976277,Nd(NiBi)2,-0.32680672649999903
mp-680610,Pr4In21Pd10,-0.5268356456190461
mp-705035,Mo(PO3)4,-2.445546209180672
mp-765601,Li3V4O11F,-2.381022063157894
mp-1008727,Ti2Ge,0.189333750370371
mp-733637,NaH8O5,-1.30439918991996
mp-776112,Li2Fe3NiO8,-1.568677991190476
mp-680334,LaSb(SBr)2,-1.663592407083333
mp-23410,Nb3Se12I,-0.9372066672265611
mp-23657,Na6S2ClO8F,-2.284168629904214
mp-765841,LiV2O3F,-2.609166711547619
mp-695243,Na2SrLa2Ti5O15,-3.450403933577012
mp-19121,TbVO4,-3.20938931361111
mp-572929,U2Cu2As3O,-1.051773737812499
mp-645340,Nd(BO2)3,-3.1752694566875
mp-504787,NpF4,-4.010959970083332
mp-1009131,MnAs,0.18002112728448103
mp-562065,PO2,-2.264104192380951
mp-755703,LiSbO2,-1.954158606145832
mp-774381,LiFe4(BO3)4,-2.233861939523809
mp-2285,Te2Ir,-0.32818080666666505
mp-976355,Lu3Si,-0.281090228194443
mp-560398,K2Zn(GeO3)2,-2.114221985409091
mp-756889,KRbO,-1.091639200749999
mp-9391,TaNi2Te3,-0.569353499555553
mp-774305,LiCo2NiO6,-1.258547901333333
mp-684108,Li2Ti(PO3)5,-2.705878369270186
mp-864666,Nd3SiAgS7,-1.7488467235156242
mp-764815,Li3Fe8(BO3)8,-2.254590525658914
mp-580161,Na3InBi2,-0.269791329022989
mp-1008733,Ge,0.33113761499999905
mp-15431,Na2Ga2As3,-0.39965046021551504
mp-690554,Sr5La5Cu(NiO5)4,-2.653813956714286
mp-542813,K2BeH4(SeO5)2,-1.658622659299342
mp-1463,LaIr2,-0.7383074216666721
mp-763540,LiNi(CO3)2,-1.6894202523333322
mp-23738,RbMgH3,-0.325598489916666
mp-998911,TmGe,-0.835538727500004
mp-9263,KErTe2,-1.634075416770834
mp-771644,Li3Cu5O8,-1.244906074999999
mp-775261,Li2MnFe(BO3)2,-2.417982141910919
mp-16502,Ho2Al,-0.344653696666663
mp-768941,Sr3TeO6,-2.7485819631666653
mp-698164,Rb2B10H6O19,-2.462523540382882
mp-11447,UTe,-0.8740584120833361
mp-34078,H3ClO,-1.141708113749999
mp-754621,Sm2Ge2O7,-3.000107539545455
mp-2391,YbPd3,-0.9654912212499981
mp-759473,Na5Ti3O8,-2.716890297931034
mp-4907,Na6Sn2S7,-1.077305547645833
mp-745163,Mn2Cu5P4(HO9)2,-1.936629756352693
mp-768303,DyNbO4,-3.487292786944444
mp-975726,PrAl4Co,-0.504929294444444
mp-780295,Li2VO2F,-2.667399296944445
mp-647822,Pd2S9N4,0.19180143976388903
mp-19911,TmIn5Co,-0.19179597761904701
mp-774473,LiNbCuO4,-2.228757806904762
mp-764951,Li6V2O5F2,-2.4917864253333333
mp-20004,Zr2InC,-0.8398362474999991
mp-29692,K2TeS3,-0.8753895005729171
mp-769015,DyGaO3,-3.154929571166667
mp-16313,TbSbPt,-1.381467409999999
mp-672677,Ti6Co16Si7,-0.509692878448277
mp-20776,U(CoGe)2,-0.30111424799999903
mp-9289,ZrSnTe,-0.7862338950000001
mp-559864,InSb2S4Br,-0.7346905439583311
mp-555451,Sr3U(Te2O7)2,-2.5250999173484843
mp-770499,Mn4P2O9,-2.45586463023399
mp-945184,YCuTe2,-1.099414819583333
mp-1018056,HfNi,-0.5166862600000001
mp-556341,Ti4S8Br6O,-1.585865508333333
mp-19217,ErMnO3,-3.082495226252873
mp-720111,Na4Al3Si3ClO16,-2.611670237056193
mp-1106,Sr2Si,-0.433073036666667
mp-555165,SiO2,-3.249857261875
mp-15170,Lu2Sn2O7,-3.02570395439394
mp-561153,XeF3,-0.835122395625
mp-558739,RbSb2Au3S5,-0.6074913829545441
mp-571163,MnSbRh2,-0.47634839549568003
mp-760348,Li10Zn3(GeO4)4,-2.146375008585858
mp-13276,SrLiP,-1.134869963214286
mp-974822,Rb3P,-0.061125994285713005
mp-773925,Li4V3NiO8,-2.267213919583334
mp-643265,ReF7,-2.104480786562499
mp-1679,La2Ni7,-0.315119082222223
mp-585184,Mo2P3O13,-2.370450197579366
mp-674522,K6U4O15,-3.071882489539998
mp-4896,Sm(SiPt)2,-1.007767018999999
mp-2682,Sb2Rh,-0.508644458333331
mp-6938,ZnRh,-0.42531099250000104
mp-3471,La2Ni5B4,-0.476318894242425
mp-8117,Rb(MoS)3,-1.020204569285711
mp-780362,La(ClO4)3,-1.014929149375
mp-770748,Gd3TaO7,-3.795271385666666
mp-4790,ThGeO4,-3.256892782499999
mp-13352,RbUCuS3,-1.4638861466666642
mp-776310,La8Cu3O16,-3.058201804444445
mp-690122,Nd2Mo2O7,-2.903089981818181
mp-20383,TbSiIr,-1.048637917222224
mp-585241,LiBi2(PO4)3,-2.298465336097884
mp-542844,V2O5,-2.228388247857143
mp-972601,SmLuMg2,-0.059650247916666004
mp-7118,Rb4SnO4,-1.770764335
mp-21584,Ta11(CoSe4)2,-0.7365045183055561
mp-972848,SiC3,2.13563533406579
mp-504877,HoB7Mo3,-0.562104629242422
mp-4614,Tb(SiAg)2,-0.36629826200000004
mp-2705,VPt3,-0.44345156750000203
mp-561130,Na3GaS3,-1.238213178805417
mp-27707,RbCoCl3,-1.525296518499999
mp-862956,PmSnAu2,-0.7305114218750001
mp-16897,Sr2Sb3,-0.9137296557499991
mp-2681,Ho5Sb3,-1.038638835624997
mp-862865,PaZn3,-0.053179781249998004
mp-5454,Er3(CuSi)4,-0.6829082854545471
mp-510439,In2Pt3,-0.5838570670000021
mp-767469,Ni9S10,-0.54823004605263
mp-6372,K2Be3Zn2F12,-3.171669690236842
mp-865107,NaMgPb2,-0.11102062409482501
mp-763541,KMn2O4,-1.9652311190160092
mp-6362,Sr2TbIrO6,-2.772697121166666
mp-752453,Sm2TiO5,-3.7528822132291673
mp-35717,LiDySe2,-1.950805046197913
mp-644225,Sr2MgH6,-0.53744493361111
mp-24291,ThH2,-0.56397526583333
mp-757673,LiTiP2O7,-2.824264652813852
mp-697020,LiAlSiH2O5,-2.618136637333333
mp-15107,KSnAsO5,-2.026099705750001
mp-773887,TiBi2O5,-2.354388872916667
mp-20573,DyMgIn,-0.36888718333333204
mp-782635,Fe3(O2F)2,-1.7696373944444441
mp-777144,Ti3Cu2Te(PO4)6,-2.601190781514551
mp-971700,ZnAuO3,-0.153992088999999
mp-769598,La4MnO8,-3.332089309071619
mp-35281,Sm2CdS4,-1.842055654285713
mp-540082,Mo2(PO4)3,-2.442685562878151
mp-777893,LiVF3,-3.043770948166666
mp-23809,RbScBP2HO9,-2.873099768813494
mp-754268,Li3Cu4TeO8,-1.379654605416666
mp-777895,MnCr2Ni3(PO4)6,-2.194043427660782
mp-29412,Ta3Br7,-1.2651413172
mp-541124,Y6Ni20P13,-0.905490145393771
mp-2626,Zr3Rh5,-0.8747733599999991
mp-978114,Sn5O6,-1.762198781818187
mp-756148,Sm2Pt2O7,-2.3927093822727272
mp-687091,Rb2U2Mo3O16,-2.62875034271739
mp-973433,LuScRu2,-0.49966342291666604
mp-674333,Na3PO4,-2.518010732972598
mp-756044,Na3AsO4,-2.044229324579741
mp-767351,V5(P3O11)2,-2.654536896147185
mp-769285,Ho3ReO8,-3.292435065624997
mp-15779,Mg2SiNi3,-0.45935778999999904
mp-766409,Li3BiS3,-1.133223986071428
mp-996997,LiAgO2,-1.099839199999999
mp-764542,Li5Fe8(BO3)8,-2.281591494666666
mp-2281,SmSb,-1.418242280000001
mp-770851,Li2TiNi2O5,-2.2287190685000002
mp-556127,MgH6(CO3)2,-1.498452886166667
mp-865352,Mg17Al11Pd,-0.066058249482758
mp-600071,SiO2,-3.2513735413888902
mp-24212,RbP(HO)2,-1.6183850095238101
mp-765093,LiSb(PO3)4,-2.434852720800265
mp-942733,Li7La3Zr2O12,-3.124116936388889
mp-772220,Li3Ta7O19,-3.163698085390804
mp-16478,Tb2Si5Ru3,-0.8162573333333321
mp-694958,Na2Li5Al7Si29O72,-3.180523235473265
mp-5005,Mg3(BO3)2,-3.028432701666668
mp-16507,LuAl,-0.457800537083333
mp-753416,LiCuBO3,-2.046676940416665
mp-20909,La3In,-0.38470217624999403
mp-12674,MnAu,-0.373967652241375
mp-541097,Zr3Pb(O2F3)2,-3.663523270357143
mp-676410,LuAgS2,-1.5011938255729151
mp-21482,NpIn3,0.006129355312502
mp-761897,LiCuF3,-2.323198566999999
mp-23897,Rb3H(SeO4)2,-1.6592750852455351
mp-698480,Sb4H2SO10,-1.710180376617647
mp-975505,Rb2CoP4(HO2)8,-2.086862407211982
mp-541538,K2CdSiO4,-2.3462613797812493
mp-743569,MnH6(OF)3,-1.745463498494694
mp-641191,U2Tl2Mo3O16,-2.444509421811594
mp-782818,Mn12O5F19,-2.656476439310344
mp-30460,YNiBi,-0.658193246666665
mp-863690,Ti2MnCo,-0.378944631149426
mp-8700,K2Au3,-0.375281917500001
mp-38676,Li11(NiO2)12,-1.440960754609928
mp-32516,LiV2P3O11,-2.673883340721287
mp-9197,Li3AsO4,-2.2690334671875
mp-19835,Nb2InC,-0.482538293749999
mp-708035,NaZn(H3O2)3,-1.3652457757429
mp-850464,Li5Cr4O8,-2.215397122892156
mp-976743,LiEr2In,-0.336645170833332
mp-601326,Sr6Ge5N2,-0.70106821346154
mp-997041,NaCuO2,-1.349820689094826
mp-763559,Li2V(PO4)2,-2.633756468919413
mp-752569,La3ScO6,-3.887130267
mp-541875,K3SnSe3,-1.194529416611607
mp-763182,Li2VO2F,-2.6154968473611113
mp-542654,RbIn3S5,-0.9947991457407391
mp-768755,Li2Sn2(SO4)3,-1.976610498377192
mp-616821,U2PbSe5,-1.274525712089843
mp-754614,LuNbO4,-3.576549126944446
mp-862994,Pm2CdGe,-0.5589509987499991
mp-625652,H9BrO4,-1.140960249553571
mp-19409,Mn(AsO3)2,-1.831274760047892
mp-753768,TbPrO4,-3.094124253888888
mp-20541,V2P,-0.8467231859920641
mp-30650,Mg2Ga,-0.11666052027777701
mp-10660,Tm,0.057614779999994
mp-695452,K2Al11Si13(Ag3O16)3,-2.714184495897589
mp-31665,LiCr2(PO4)3,-2.458351434292327
mp-4924,Pr(CuGe)2,-0.5832343063333321
mp-554754,Na2Zn(SO4)2,-2.066478037039124
mp-617442,RbTa(CuTe2)2,-0.6625830808124991
mp-24149,LiCe2HO3,-2.7979020385119053
mp-10520,LiNdTiO4,-3.417164427738094
mp-23177,HgBr,-0.689096676250002
mp-764723,LiFe4(BO3)4,-2.226741247380953
mp-1093,ThGe,-0.9144355199999901
mp-1018021,NbCo3,-0.12333955375000101
mp-780123,LiMn3(BO3)3,-2.401018899664153
mp-773965,Nb2PbO6,-2.732932651444445
mp-767613,RbVBP2HO9,-2.618636549646825
mp-621825,Y6Pb8OF32,-3.514431159255318
mp-773017,LiTi2(PO4)3,-3.012545660357143
mp-12185,LiCu(PO3)3,-2.402899126232993
mp-865961,K3Bi(AsSe2)6,-0.6893343674943181
mp-567413,TbInPt,-1.144207848888887
mp-772833,Y2HfO5,-3.9415576859375
mp-721182,PH11(NO2)2,-1.104128677688492
mp-945194,Na5(SiO3)6,-2.321475123686088
mp-631566,TaAuBr,0.9427529792222231
mp-10343,Sc2BC2,-0.6932682705000001
mp-778925,Na6CuO4,-1.330768972115987
mp-21010,PrSnRu,-0.49564471388888703
mp-17066,Y2TeO6,-2.995436384074074
mp-2637,YSe,-2.003811054531251
mp-3032,RbBF4,-3.308195844444444
mp-768250,LiPrPCO7,-2.612315641331168
mp-667368,SiO2,-3.2550928184375
mp-758660,MgP2(H8O5)2,-1.407834825320197
mp-554037,KU2H5C4O15,-2.120449471425926
mp-18385,Lu2Si2O7,-3.704521043939393
mp-505236,V2Hg(P2O7)2,-2.520729114812924
mp-557640,Nb3SnS6,-1.3292809845
mp-781060,Mn2OF3,-2.621504089310345
mp-29193,Nb2Se4O13,-1.865832660230264
mp-1429,SmCo5,-0.0452820975
mp-9064,RbTe,-1.048316926249999
mp-22960,YbCuBi,-0.357051998333337
mp-21092,InNi2,-0.041711220000001006
mp-4990,MnSnRh2,-0.435062605732757
mp-769507,Li10CoNi9O20,-1.517547280333332
mp-19459,K2MgV2O7,-2.556299013708334
mp-569,NdCo5,0.00035995354166800005
mp-22013,LaTiO3,-3.639685829666668
mp-753593,Ti10O13,-3.137637334710146
mp-542967,SnSO4,-1.834566469583332
mp-979272,TePdO3,-0.592522260333333
mp-31438,YZrSb,-0.9340323033333341
mp-756214,YAlO3,-3.685266473999999
mp-504835,NbNiAs2,-0.48393209124999903
mp-542390,Ho(SiNi5)2,-0.44306308230769104
mp-721564,Na3SiH5O6,-1.8936307286091951
mp-542933,TbMg2Cu9,-0.170708103472221
mp-30998,Ti(NO3)4,-1.227902743872549
mp-735488,RbNa3Mo2H18O17,-1.576442667539949
mp-706521,K2PH3O5,-2.066140985376623
mp-19036,Tm2V2O7,-3.259915154545456
mp-570912,YbInAu,-0.8492228794444441
mp-760421,Zr6BI12,-1.207050387324561
mp-616327,In3Te3I,-0.608504545714287
mp-604229,ZnH3CNO3,-1.26347275486111
mp-705291,LiCrP2O7,-2.6441170875108213
mp-760790,LiCuF4,-2.057050665777781
mp-680436,Rb2LiSn4,-0.291459588511903
mp-7956,Na3Sb,-0.569552188749999
mp-980202,TmGePd,-0.976941646666672
mp-755243,Li5CuSO2,-1.648559671574074
mp-28989,Li10BrN3,-0.6631821730952381
mp-24216,ZnHgAsHO5,-1.448516387361112
mp-27936,Na2SbF5,-2.875063982219829
mp-767833,MnFe(PO4)2,-2.371971398934728
mp-775544,Ni3Sb(PO4)4,-2.103946525773809
mp-8786,Zr2NiAs2,-1.008394639000001
mp-780487,LiMnPH2O5,-2.192209989840722
mp-757889,LiSn(PO3)3,-2.442091962482993
mp-961645,LiAlGe,0.04904599388888901
mp-9687,K2PAu,-0.595615487619046
mp-865499,V2TcOs,-0.42332928749999904
mp-962073,KBaSn,0.035810862583333006
mp-11506,Ni3Mo,-0.052448666249999006
mp-975799,LiZn3,-0.159249031666667
mp-989612,LaCrN3,-0.9915784432500001
mp-12411,Li2ZnGe,-0.322400300416666
mp-1539,ZrTe,-1.042866607500002
mp-11108,SrP3,-0.749926985982144
mp-683982,RuOF4,-1.7889469606250001
mp-29402,KGaI4,-1.128624944541663
mp-989615,YWN3,-1.2215956657500011
mp-558259,Pr3Si2S8I,-1.764447743214285
mp-723175,K4CuP6(H4O11)2,-2.1758304022404182
mp-866134,VFe3,-0.12830672750000002
mp-7569,KAsF6,-2.73981554059375
mp-778614,Li4Cr2Ni3Sn(PO4)6,-2.351174179654761
mp-3269,NaTh2F9,-4.21724276625
mp-3980,LiSbF6,-2.8683524941666683
mp-1018026,LiAg,-0.16617734083333402
mp-767053,Li2Co(CO3)2,-1.939154153560606
mp-866196,Li2PrIn,-0.408762071249999
mp-7385,K2Be2PbF8,-3.235091948807692
mp-21282,Na2SO3,-2.020232792543103
mp-4083,MgCuAs,-0.42087555416666605
mp-554231,Nd5Cu5O13,-2.435957004891304
mp-757158,LiTa3O8,-3.213355904819444
mp-721279,H3SNO3,-1.176830677656249
mp-4595,VFe2Si,-0.46254781000000006
mp-11465,Mg5Hg3,-0.19714389343750202
mp-570910,Rb2CrCl4,-1.899689072142858
mp-23659,Na4Ga3Si3BrO12,-2.659458528392054
mp-779057,Li2Fe2B2O7,-2.270297020576922
mp-19144,Rb2W2O7,-2.2765630359090903
mp-20123,Te2Au,-0.090904143333337
mp-5457,Pr3Co11B4,-0.23572857009259202
mp-976727,PrBiO3,-1.919920315333334
mp-770691,Li3AlFeO5,-2.291145247999999
mp-570955,Na2UCl6,-2.162771523269476
mp-19226,NaFePO4,-2.411247884074594
mp-640045,Ti8Bi9,-0.210500001078431
mp-10142,Ta3B4,-0.8041928760000011
mp-22875,TlBr,-1.146381539166675
mp-29083,NaErCl4,-2.371451195555556
mp-977140,NaTa3,0.801282530862067
mp-27430,Sn2BF7,-2.847382213166667
mp-698476,H2C3(N2Cl)2,-0.32328967045454604
mp-753354,Eu4O3F7,-3.475199790000001
mp-1571,PrPd3,-0.7583322279166661
mp-20363,LiGa2Pt,-0.6194263145833321
mp-568234,Na4CaSn6,-0.29065402504702004
mp-1018127,TbSb2,-0.37100989055555506
mp-697757,LiCr2(PO4)3,-2.451948650125659
mp-560998,SiO2,-3.254527223518518
mp-556536,Na2Zr(CuS2)2,-1.2435093036398461
mp-680525,La7P12Pd17,-1.014825441130951
mp-1009488,NiN,0.472471271666666
mp-504560,Y2ReB6,-0.6765457636111081
mp-568991,Hf2Al4C5,-0.5457618844128801
mp-554416,Ta4FeS8,-1.315657393410258
mp-572604,Eu2Re6S11,-1.121075552236841
mp-20408,InGaTe2,-0.398280765252195
mp-861918,Sc2TlCd,-0.344184799999997
mp-9060,RbPdF3,-2.1177950265
mp-8299,Sr4As2O,-1.701555782857144
mp-20044,La(NiAs)2,-0.868344175999999
mp-555296,YbTaO4,-3.605629401222221
mp-753585,Li14Fe2S9,-1.3167674537666652
mp-760,FeSe2,-0.669716959895831
mp-17382,Rb2Si3SnO9,-2.86547719
mp-20077,USe2,-1.414017897395827
mp-982780,K3Cd,0.021702187714842003
mp-30773,MgNi2Sb,-0.27849802374999905
mp-15626,Rb2NaTiF6,-3.3105537079712652
mp-999187,SiHgP2,0.749274128824406
mp-978974,SnRh3,-0.25236256375000105
mp-560310,SbPOF8,-2.734204389740261
mp-29888,Er(ClO4)3,-0.9665398231250001
mp-5925,Nd2MgNi2,-0.293710811000001
mp-777471,Li2FeF4,-2.863927221309524
mp-971975,SrHgO3,-1.3590512335000011
mp-24363,PH10N2O4F,-1.324581171369047
mp-262,Na3B20,-0.09981495782608701
mp-28539,Rb3Mo15Se17,-0.877997141924108
mp-862734,Pm2ZnSn,-0.577885615000003
mp-6259,SrLi2Ta2O7,-3.207777473027777
mp-7771,Sr(CdAs)2,-0.604969456999997
mp-8614,K3NdSi2O7,-3.035138234301282
mp-754674,Lu(CuO2)2,-2.099375442380951
mp-699888,Na2TiFe(PO4)3,-2.677775596053711
mp-558852,FeF3,-2.627794950833334
mp-541522,Na2Ca(PO3)4,-2.799806669280529
mp-551250,ErBi2IO4,-2.332201546875
mp-20780,Tb(MnSn)6,-0.139535747250221
mp-1297,Tl9Pd13,-0.23575960045454503
mp-972274,Tm2ZnHg,-0.47182341312500803
mp-757899,Li3Sn2(PO4)3,-2.509036520196428
mp-570157,ZrBrN,-1.880638443333334
mp-567852,SmCo9Si4,-0.44907393250000105
mp-19254,FeSO4,-1.858110193749999
mp-11715,MgSn(BO3)2,-2.712048039833334
mp-721084,H7IN2,-0.5261761113749991
mp-541451,Ga2(SO4)3,-1.9458350539705882
mp-756655,TiO2,-3.433592911527778
mp-12906,Sr3CrN3,-0.979941014464285
mp-13341,YB4Rh,-0.595662411527777
mp-677195,Nd10Si10BrN17O9,-2.23479351723404
mp-569163,SmCoSb3,-0.6725951529999991
mp-763051,Li2VO2F,-2.712929244861111
mp-23138,SbPbClO2,-1.710929169
mp-643270,K3ZnH5,-0.31892401000000004
mp-28085,KAs2F7,-2.625070612975001
mp-972222,TaBeO3,-2.106223181466666
mp-26550,Nb(PO3)4,-2.6059939872689073
mp-21794,Sm2Si2O7,-3.622445458068182