material_id,formula,formation_energy
mp-683600,K3Cr4PO16,-1.9572207169330351
mp-22451,MoPRu,-0.541038211825397
mp-37214,MnPbO3,-1.601353852586206
mp-2997,ThB2C,-0.591609773749998
mp-763319,V3O5F,-2.566377346111111
mp-13445,Rb2As2Pt,-0.482807899999998
mp-23403,SbIF5,-2.276703292499999
mp-864782,Ta2MoRu,-0.40721984741666906
mp-17891,NaYSiO4,-3.3462597766256152
mp-676084,Na2SnS,-0.517523590703124
mp-762271,Li2V3O6,-2.46147739469697
mp-1009731,ReC,1.074984568125003
mp-865447,LuSbPd2,-0.895846756666667
mp-22673,MnInCu2,0.054852823195815005
mp-673696,Lu4Zr3O12,-3.990777823245619
mp-30455,HoBiPt,-1.175998753333327
mp-542043,K4H6C2O9,-1.7563663084047612
mp-752549,LiAgF2,-2.125241082916668
mp-21894,LiSn4Ir,-0.30572098555555205
mp-542045,UTlH(SeO4)2,-1.990473768982371
mp-973156,ScAsO3,-1.7497117375000002
mp-767791,Mg5Co19O32,-1.6579286734821421
mp-603910,ZnH14C2(N2Cl)4,-0.5803189052586211
mp-23702,LiH2N,-0.5905356927083331
mp-685414,Tb11CuSe16,-1.967640336636903
mp-19962,Sn2Pt,-0.45046744666666405
mp-645425,Pr7C3I10,-1.356116483833333
mp-570568,W2NCl8,-0.938161778977272
mp-777129,TiO2,-3.454227132777779
mp-13483,PrBPt4,-0.765969916805547
mp-977440,LiTiPt2,-0.8956116783333311
mp-974745,Rb3Tm,0.6352076118749981
mp-998743,TlGeCl3,-1.284060811666667
mp-29239,LuB2Ru,-0.6675416818749991
mp-767779,VCr(P2O7)2,-2.556703100178571
mp-775257,Li8Mn3Fe5(BO3)8,-2.394804634454022
mp-2316,TmZn,-0.40473448250000005
mp-973839,PdAu3,-0.096254770000001
mp-12427,Sr2TaGaO6,-3.176308581483305
mp-18918,ZnWO4,-2.055167530000002
mp-971779,ZnRh3,-0.197140483750001
mp-2516,YZn,-0.38715806750000104
mp-2533,NbO2,-2.85016904125
mp-971921,TbSmHg2,-0.5736269887500001
mp-5078,SrZnF4,-3.366921715
mp-28658,Na2CdCl4,-1.833670810394087
mp-755525,TmTiO3,-3.652124086666668
mp-990436,ScClO,-2.582287871666665
mp-574485,Cs4Ga2Se5,-1.242127720028409
mp-28290,CdTeO3,-1.521631727583333
mp-654109,BaCu4S3,-0.810136815312499
mp-19262,Cr2CdO4,-2.141551745
mp-29914,Er7(NiTe)2,-0.7449676566666661
mp-27828,Cs2TiCl6,-2.06158007574074
mp-579536,CsCu2ICl2,-1.139822898275862
mp-867138,EuSnAu2,-0.6073447150000021
mp-757745,Ba4In2O7,-2.46355127025641
mp-560114,Er3O2F5,-4.383207447000001
mp-772600,Cd(FeO2)2,-1.5657365421428562
mp-760381,CuS,-0.267841336406249
mp-16978,Ba3MgSb2O9,-2.697531417666667
mp-763315,Co2OF3,-1.9492922116666662
mp-553897,Ba2Si3O8,-3.377156034615385
mp-637188,Ag2WO4,-1.345724475654761
mp-11286,CaHg,-0.5927816487500011
mp-680246,Cs4Zr3S14,-1.459683590648603
mp-22941,CaCuBi,-0.548325719166678
mp-510557,CsN3,-0.21685479031249902
mp-19319,ErMnO3,-3.048090045586206
mp-11816,BaCdGe,-0.45231877666666703
mp-10478,CeAsRh,-1.2581861849999991
mp-705094,Co2As2O5,-1.485607919999998
mp-570549,AgBiTe2,-0.10886412145833901
mp-675418,BH6N,-0.30212953807291604
mp-675831,Bi2Pb3F12,-2.532261220000006
mp-779413,BaP4O11,-2.7624388874107133
mp-9740,BaDy2PdO5,-3.061456264814813
mp-761108,BiOF,-2.126349776666667
mp-30146,CaSn2F6,-3.114991059999999
mp-570400,Ba7Al10,-0.23075273117647002
mp-17017,Al12Co4Cu,-0.387651981372548
mp-5577,Ce(GeRh)2,-0.8561592080000001
mp-27748,Be(B3H7)2,-0.19827502666666602
mp-28134,Ba2As2S5,-1.368974388472221
mp-735589,CaV2P3HO12,-2.727558080667292
mp-2715,CoAs2,-0.290117705833334
mp-41236,Ba2La2Zn(WO6)2,-2.854017015789474
mp-778602,Ba3GeO5,-2.85352409027778
mp-8809,BaLa2PtO5,-3.030775586666667
mp-542931,Bi2B8O15,-2.6267447043333343
mp-556936,CsBa(BO2)3,-2.913815317317138
mp-11834,CuNiSb2,-0.127051317500001
mp-643006,Cs3H5Pd,-0.325431270023947
mp-6691,Ba2Dy(CuO2)4,-2.060182476777778
mp-20936,Ba2PrCu3O7,-2.143885436666665
mp-561283,CdGaH14O7F5,-1.646166185
mp-571527,Cs2LiInCl6,-2.012196700931032
mp-7808,BaP3,-0.66459478973214
mp-677067,Ca3Al4Si8(ClO12)2,-3.2017045046341472
mp-30750,CeAl4Ni,-0.535053100833332
mp-705517,CsCoH18N6(ClO2)4,-0.527978381635662
mp-4090,Ce(SiRh)2,-1.061100813999993
mp-9307,Ba2ZnN2,-0.567185527999998
mp-6089,BaZn2(PO4)2,-2.729195811098901
mp-984744,Ca3Tl,-0.27051823749999904
mp-13755,BaNa(PO3)3,-2.867709152700563
mp-27972,AcBr3,-2.494519163125
mp-7297,Cs2SnF6,-3.041488856034478
mp-667327,Ag2Pb8Cl4O7,-1.381790716468252
mp-8666,CsAgO,-0.9897648946072791
mp-16528,Al6Re,-0.23009870964285703
mp-2644,CoSb,-0.038880820000002
mp-6641,Ba3SrRu2O9,-2.432572327333333
mp-568662,BaCl2,-2.96823858
mp-768969,Bi3B7O12,-2.369380978143939
mp-646967,Ca3Mg3(PO4)4,-3.18896666834249
mp-548824,BaTbO3,-3.121946820333333
mp-674412,Ce8U2O21,-3.7846005988709672
mp-757442,Ca3In2O6,-2.6915895462121213
mp-3352,ErSiPd2,-0.992638473125
mp-558794,Cu2BH5O6,-1.420851128779762
mp-769128,Dy2Sb2O7,-2.775497819848483
mp-662570,BaB2F8,-3.515446121780302
mp-572313,Cu3Te2(BrO3)2,-1.121687574871795
mp-17947,BaCu2GeS4,-1.058076236458333
mp-541772,Bi4RuBr2,-0.46931114928571505
mp-567857,Cd8Ag5,-0.053803280769229
mp-573727,Bi8SbAuBr9,-0.720775032763159
mp-2345,Dy2O3,-4.005045779666665
mp-5710,Ag3Te2Au,-0.10585073750000101
mp-504563,BaFe2Se3,-1.041645748255207
mp-680639,Cu3Pd,-0.098123459285714
mp-12495,CsTbCdTe3,-1.290242505220305
mp-10062,Ba2NdNb(CuO4)2,-2.675009604821428
mp-29110,Al2(FeSi)3,-0.45394824187499905
mp-561722,CsTmCoS3,-1.544126444525862
mp-757826,CsCa(NO2)3,-1.4133099649686511
mp-1019541,BaCa3O4,-3.003986249999999
mp-20136,BaPb,-0.5882220674999971
mp-1018690,ErZnGa,-0.640789177777776
mp-7263,CaGaN,-0.868637857916667
mp-252,BeTe,-0.570361940833332
mp-1019713,Cs4Si3O8,-2.792113865408046
mp-24469,CaAl4Si2(HO6)2,-3.120014275357142
mp-15325,BaAs3,-0.619441594374999
mp-631578,BeSbAs2,0.6346474724999991
mp-696946,BaSn2(HO2)2,-1.906150635833333
mp-29223,Ba3Si5O13,-3.368732915833334
mp-540111,FePO4,-2.331792440357143
mp-988945,AlAs,-0.47724543374999906
mp-2482,CaC2,-0.13510097333333201
mp-561299,As2Pb4S6ICl,-0.747617497857142
mp-4155,Ca2Nb2O7,-3.25606345590909
mp-851112,Ba9La5Br33,-2.5056712455319152
mp-561086,CaSiO3,-3.427817503666667
mp-690687,Ag2H2IOF,-1.046624786547618
mp-21521,Cs2PbO3,-1.536663919885058
mp-771951,Ba3La2Br12,-2.467618043235294
mp-768910,Bi2B2O7,-1.736755038030302
mp-28340,CaAsPt,-1.151342647499998
mp-772891,BaLaBr5,-2.405241430357143
mp-1013709,Ba3AsN,0.293266061499998
mp-19138,BaNiO3,-1.8200224730000012
mp-28497,Cs2CrCl4,-1.872968705714285
mp-634117,BH3,-0.0449355434375
mp-22550,BaDy2CuO5,-3.083058379537037
mp-570262,Cs3ZnCl5,-1.9658915391666651
mp-554272,Cu3SbS3,-0.259151417949865
mp-1019732,EuAl2O4,-3.413126838214287
mp-555599,CuS,-0.277785418072916
mp-1019377,Al(PO3)3,-2.841152989725275
mp-866613,CsNa2Be6(BO3)5,-2.8845114321809353
mp-10442,Eu(Cu2As)2,-0.37066081142857205
mp-631425,FeTc2Cl,0.636939425
mp-704536,Be3Fe4Si3SeO12,-2.372041555319293
mp-14853,Ba3Er4O9,-3.6008915221874993
mp-21160,Er2Cu2O5,-2.627509326944443
mp-754469,Er2TeO2,-3.265895704333331
mp-19215,CaCrO4,-2.43201730833334
mp-772198,Be(Bi3O5)4,-1.623288378030304
mp-526,CaTl3,-0.279634900000004
mp-675010,CsHgCl3,-1.473696224431036
mp-989525,Cs2RbPbF6,-2.752321537681034
mp-1006368,Ce2SnSe4,-1.617148129910712
mp-1008965,CdN,0.994917862499999
mp-645662,Ba14Na14LiN6,-0.297018754361248
mp-638685,CsEuBr3,-2.291877774931035
mp-675991,Cd3(BiO2)10,-1.417964930606061
mp-540806,Ca2IrO4,-2.4192389080952372
mp-1016903,CdGeO3,-1.555840297999999
mp-556040,CaS2(ClO3)2,-2.068435685681818
mp-5798,Al6C3N2,-0.534818043181817
mp-555078,Ba3SrSb2O9,-2.724019093666667
mp-30570,CrGaFe2,-0.027434201874998003
mp-554225,CsFeF4,-2.821379681609196
mp-2658,AlFe,-0.326887014999999
mp-30366,Ca3Au,-0.5012645812500011
mp-504678,CoSeO4,-1.2320145424739581
mp-560742,Ba2TeP2O9,-2.854489903282313
mp-9745,Ba3NaRuO6,-2.445419504216302
mp-1019527,Ba3Y2(B2O5)3,-3.290102363173076
mp-8937,CrSi2,-0.25700194666666604
mp-756336,CaEu2O3,-3.085507231666668
mp-752602,BiBr3,-1.17217281125
mp-757574,Ba8In8O19,-2.376217413666667
mp-28164,Ba4P2O,-1.507804984183673
mp-17493,Be3Cd4Si3SO12,-2.582043845326088
mp-8573,BaTbF6,-3.788459540208332
mp-707170,CuH6SO7,-1.375951694999999
mp-555966,BaTi2O5,-3.530045994166729
mp-9656,BaY2PdO5,-3.026492026666667
mp-560745,AuN5O14,-0.6861960044999991
mp-19177,CrO2,-2.04770086166665
mp-20900,Cu3Sb,0.063002086249999
mp-2197,BaHg,-0.530035256250001
mp-753619,BaSrO2,-2.8960987325
mp-755322,BaNa6O4,-1.661868793025077
mp-697033,CdH4CN2Cl2O,-0.928972895909091
mp-3847,DyCoC2,-0.33554742791666603
mp-998333,CsCaI3,-1.8202017069310341
mp-1019587,CaAl2SiO6,-3.3941309285
mp-18894,CaCo(SiO3)2,-2.949598319
mp-772882,Dy2Ge2O7,-3.031162950984847
mp-8300,Ba4As2O,-1.577458191428567
mp-21000,Dy(MnGe)2,-0.48181304150574206
mp-996954,CuPtO2,-0.813504064999999
mp-542264,BaNaCe2C4O12F,-2.7001993129228232
mp-570123,Cs3BiCl6,-1.828836669499998
mp-4753,Al2SiO5,-3.3748300146875
mp-22149,DyGeAu,-0.8252924688888881
mp-2431,ErTl3,-0.191784962500006
mp-19077,CrAsO4,-1.9664170179166631
mp-760162,BiOF,-2.198648160000001
mp-33615,Ba(LaS2)2,-2.433655062142855
mp-12504,CeZnPt,-0.8660220374999981
mp-556570,Ag4Se(IO2)2,-0.6861801392282191
mp-568895,BaSbAu,-0.925474241666669
mp-19738,ErMnSi,-0.583033490399088
mp-1404,CdAu,-0.203186414999997
mp-861937,Ba2AsAu,-0.9461468618750001
mp-581738,Cs3BiSe3,-1.132060919955356
mp-38117,Ba(GaTe2)2,-1.025832131666665
mp-755678,Ca(LaI4)2,-1.754510599545453
mp-1019591,Ce3ZrO8,-3.865893192499999
mp-541657,BaH2N2O5,-1.4112138250833342
mp-865193,Co3Pt,-0.075736843749999
mp-989695,Cu,0.007716539999998001
mp-758814,CaAs2H6F18,-2.347487917777778
mp-2824,AlPd2,-0.8292466416666661
mp-729,Cr3Si,-0.14233230875000102
mp-605650,Ba5Ga5Pb,-0.472555280681815
mp-14506,Al7Te10,-0.546650040882354
mp-744002,CoH16C3N8O7,-0.738497132285714
mp-23484,CsAuCl3,-1.194202064500001
mp-7646,Cs2PrO3,-2.176447823496168
mp-11794,AlAgO2,-2.240488851666666
mp-574379,CsHg2,-0.24879828655173203
mp-626263,Ba(H8O5)2,-1.395658521666666
mp-754302,Dy2Zr2O7,-3.864660388030302
mp-983589,Ag2GeO3,-1.2000239534722201
mp-755829,BSbO3,-2.227707467333334
mp-3218,Er(SiPd)2,-0.9313066240000021
mp-753801,Cs2Sr2O3,-2.196080097758621
mp-5766,CeCuS2,-1.628191004531251
mp-554988,Ag2Ge2O5,-1.485430639074073
mp-13934,Ba2TmReO6,-3.07167965825
mp-18177,Ba3NbAs3O,-1.5137468131249991
mp-673047,CuPO4,-1.787541203829364
mp-18232,Ce2Al3Ge4,-0.46708660166666605
mp-30970,Er12Co7,-0.202081798421051
mp-1229,CuF2,-1.8150299499999991
mp-559161,CrCdF6,-2.608249265000018
mp-555095,Ba5Re3NO18,-2.55915809101852
mp-2098,CeOs2,-0.23104823999999802
mp-676072,Ce2PbSe4,-1.708976901339284
mp-680636,Er(Al10Cr)2,-0.137102160869564
mp-29532,Ca11(ReO6)4,-2.90627010025641
mp-1144,ErP,-1.842191485654762
mp-556443,Ba5Ru2Cl2O9,-2.509366172777778
mp-675546,Cr4Cu3Te8,-0.40653323888888804
mp-753711,Ca3(PO4)2,-3.249528727637362
mp-1008274,Co3W,0.147030472499999
mp-645717,Co3TeO6,-1.417656873666668
mp-530879,Ba4Ti4O9,-3.054614318921568
mp-555764,BaNb10SiO19,-2.872024411290288
mp-761526,FeCoO4,-1.123441551666667
mp-5615,CaAgAs,-0.8982986191666661
mp-29992,AsPbF7,-2.40769107972222
mp-1008282,Cr3Fe,0.12679181250000002
mp-771132,Ba3Ga4O9,-2.684727575937501
mp-18414,BaLa2BeO5,-3.487561350277778
mp-555574,Dy2O3,-3.9771516840833323
mp-866229,Ca2SnHg,-0.659526856875
mp-679,Er2O3,-4.057094096999998
mp-505435,Gd2Br3N,-2.195261450833333
mp-696075,Ca2H2S2O9,-2.316446023277776
mp-643409,Ba4Y(CuO3)3,-2.379512943235294
mp-29787,Ba5Pt2O9,-2.309565526354167
mp-624214,Cs3Bi2I9,-1.2109592702832521
mp-653287,Cr3Pb5F19,-2.836037779629629
mp-758223,Bi11PO20,-1.68228415983259
mp-559435,CoF3,-2.14632564125
mp-23341,Bi2Pt2O7,-1.330811493636362
mp-768147,Dy(ClO4)3,-0.9687877382291661
mp-27694,H3ClO5,-0.8202991431944431
mp-773141,BaLaCl5,-2.8415702557142852
mp-545512,CaO,-3.201694972499998
mp-778873,BaCe2O4,-3.5022904546428553
mp-17598,Cu2Te3O8,-1.29066510076923
mp-861950,Ca2SbAu,-0.9151396175000001
mp-752442,BaLu2O4,-3.756481235833334
mp-13683,HfGe2,-0.48512191666666604
mp-31763,Ca2FeReO6,-2.55467773025
mp-13775,Gd2Si2O7,-3.629723050909088
mp-28717,Cu6As4S9,-0.259026208963816
mp-22412,Ba(MnGe)2,-0.23623205517241402
mp-695505,K2LiNb6(PO8)3,-2.927287174771164
mp-560308,BaZr4(PO4)6,-3.260100587938776
mp-24302,CdAs2HF13,-2.3667401374264703
mp-754967,BaTeO4,-2.25012785236111
mp-31456,HfSbRu,-0.5357222264035121
mp-755543,HoHO2,-2.989071960312498
mp-976053,Ge3Te,0.38612305499999805
mp-767417,K2AlPCO7,-2.586816962011905
mp-722865,H8Se2N2O5,-0.914378236305147
mp-540868,Ca3Si(ClO2)2,-3.2808403755
mp-5690,GdScO3,-3.920327644499998
mp-866292,Ba2TlCd,-0.367555368333333
mp-541196,Ce2Fe12P7,-0.7168669172619021
mp-7466,CaCu2O3,-1.7233251491666661
mp-20730,HfCo2Sn,-0.39512803375000005
mp-510311,BaZnPb,-0.41093381166666504
mp-4800,Ca11(CN5)2,-1.004873411847826
mp-696673,Cr7Se8,-0.655663398583333
mp-1220,Be5Au,-0.08535215583333401
mp-625445,H2SO4,-1.503892242142856
mp-4871,ErP5O14,-2.831699211910713
mp-902,BaZn,-0.167378779999999
mp-30940,Cd2Te2O7,-1.5106892580303022
mp-18734,HoVO4,-3.209082368333334
mp-28946,Bi3NF6,-2.189558164250001
mp-15487,Ag6Ge2O7,-1.017148676166665
mp-18800,Cr2SiO4,-2.507166292857142
mp-721713,H12Pd(I2N)4,-0.48672061459999905
mp-640708,FeGe2,-0.0041703941666670005
mp-28018,Be(H2N)2,-0.6717962124999991
mp-989591,K2BrCl6F,-1.15279290845
mp-557632,K2LiBO3,-2.343015470999999
mp-574283,GdTe,-1.537004795000001
mp-603327,H3SNO3,-1.169269925468749
mp-6098,ErNi2B2C,-0.520914910555555
mp-864890,Hf2FeIr,-0.6709873499999991
mp-779498,Ba3(ClO)2,-2.865446423392857
mp-772087,Er3Sb5O12,-2.674941201499999
mp-12669,Dy2SO2,-3.584364030166664
mp-16722,Al10V,-0.101596936136364
mp-21533,CuP2PbO7,-2.2432138512987
mp-569850,CeBr3,-2.261770134999998
mp-2218,Er5Mg24,-0.009714007931033001
mp-672267,Ce(SnPt)2,-0.788621583999998
mp-976876,K2PtC2,-0.183952175499999
mp-631404,CrIrRu,0.62380179555556
mp-30728,HoIn,-0.42398418583333
mp-23292,HgBr2,-0.8287702491666711
mp-561013,Ga2PbO4,-2.069980018571426
mp-861869,CaLuRh2,-0.721405350868057
mp-982982,HfH3,-0.302840800624998
mp-766313,BaCa2I6,-1.883563465925925
mp-707135,Al2Si4O11,-3.284969743235293
mp-673255,Cu9Se8,-0.17552827632353202
mp-24407,CdP2H6O7,-1.636152694486607
mp-779108,Be2P2O7,-2.820275837321428
mp-13906,CuSnF6,-2.312158153749999
mp-554775,CaCuO2,-2.072768574375
mp-541485,Ba3CaRu2O9,-2.4771969606666673
mp-21323,DyGeIr,-0.931985303055556
mp-770576,FeH12(SO7)2,-1.433253262931033
mp-8948,CeAsPd,-1.330524994166666
mp-768378,Ba2YBr7,-2.4148799252499993
mp-470,GeO2,-2.156655663333334
mp-683980,Ho(IO3)3,-1.485349374423077
mp-768175,Dy2SO2,-3.572321393166665
mp-631547,In2ReB,1.467429317500002
mp-989648,Cs2AlGaH6,-0.160572485431034
mp-755481,Ca(ClO3)2,-1.178014959722221
mp-24722,HRh,0.050810500625001004
mp-34586,Co2RuO4,-1.25661225642857
mp-531864,Al24Zn3O40,-3.194382054179105
mp-9814,Cu3SbSe4,-0.232113537031249
mp-556303,CuBi2(SeO3)4,-1.362707374177632
mp-28537,As2PbO4,-1.646121696071428
mp-1019730,EuZn(BO2)5,-2.801632591225491
mp-773073,Ba8Ta7O24,-3.344112180290599
mp-974973,HfZrZn2,-0.27733550625000003
mp-9784,BaBAsO5,-2.625826847291667
mp-772813,Ca2Cu2O5,-2.070055870833334
mp-1019723,CsZn4(BO3)3,-2.327153736303246
mp-744,HoP,-1.8516294164880942
mp-982559,HoAlAu2,-0.8148339622321281
mp-721624,Ca5P3HO13,-3.222590942962663
mp-559824,Au2Se3O10,-0.906057643135418
mp-862780,K2InP2S7,-0.9680886194126971
mp-997107,CuO2F,-0.8244834237499991
mp-755446,Bi2(BO3)3,-2.05635400625
mp-510280,CeAgSb2,-0.755950821666664
mp-676497,Ce2UTe4,-1.373124848095236
mp-4377,K2TbF6,-3.363462804574074
mp-772788,Ba2Cu2O5,-1.9262245013888881
mp-733443,Ca7Si6H4CO23,-3.023255006951219
mp-558712,Ag2BiO3,-0.913087568055555
mp-19122,BaSr2Mn2(Si2O7)2,-3.103148711994003
mp-675745,Cu(Mo3S4)2,-0.7055114344999991
mp-556721,Ba5Re3BrO15,-2.773144637604167
mp-782646,Fe4O7F,-1.459377670833333
mp-773494,CsH5S2(NO3)2,-1.325309822869072
mp-973682,Fe3B,-0.21346262916666503
mp-540991,BaNi9As5,-0.45846598049999504
mp-772063,BaLaCl5,-2.83341049875
mp-849800,H7SIO10,-1.205964233421052
mp-9503,BaDyCuTe3,-1.450041400277777
mp-862681,ErMg3,-0.033069351249999004
mp-5213,CdSnP2,-0.084895882321427
mp-626865,H2WO5,-1.49187888375
mp-7424,BPd2,-0.275338095833333
mp-1522,FeS2,-0.8474769699999981
mp-21347,CoBMo,-0.38316462583333505
mp-19108,Ca2MnWO6,-2.777544282293102
mp-866474,Ca2SnS4,-1.6395763607142841
mp-752678,AgAuO3,0.002464529166667
mp-556587,AuSCl7,-0.28595768864583304
mp-977541,Hf2TcOs,-0.717994072500005
mp-973465,Ho3In,-0.23397067541666203
mp-9238,Ba2UCuO6,-2.988900823999999
mp-866005,Dy2TlCd,-0.32317480666666604
mp-559537,Ca4P6O19,-3.067711224064038
mp-542459,BaGa2(GeO4)2,-2.4412976074999992
mp-695133,CsMg4Al9(SiO4)9,-3.301908251350088
mp-8182,As3Rh,-0.49874215187499904
mp-697948,Cs4Mg3H10,-0.32329149271298
mp-7377,Ba3(AlSn)2,-0.519673631428572
mp-775,Er5Si4,-0.814710759907411
mp-21538,Ba5Ge3,-0.5011784303124991
mp-866291,AgBr,-0.6291156683333321
mp-22369,FeSb6(Pb2S7)2,-0.608631794599999
mp-542953,CaZn3Ni2,-0.315994453888888
mp-13490,ErAl3Ni2,-0.661009991111109
mp-1011260,EuFeO3,-2.413201902000001
mp-31829,Fe3(PO4)4,-2.097434304068322
mp-640922,CeInPt,-0.916540587777777
mp-975611,Ge3B,1.008510628958333
mp-997028,AgO2F,-0.634450612916666
mp-18125,Ag(AuF4)2,-1.201867790454545
mp-768510,Ba4Sn3O10,-2.6391075661764702
mp-38802,Ga2CoO4,-1.938851103214287
mp-567666,Ba3BiN,-0.8488473629999981
mp-867349,Dy2MgTl,-0.214587415416664
mp-675179,Ba3Bi2F12,-3.476529334705882
mp-20152,In(MoSe)3,-0.505487669598214
mp-22472,Ba3CuRu2O9,-2.117636103666667
mp-31289,Bi5NO10,-1.499000011093752
mp-756505,Cs3ScO3,-2.260132318423644
mp-28489,Ca5(GaN2)2,-0.9371253954545461
mp-753911,GdAsO4,-2.784808940416667
mp-780255,Gd3NbO7,-3.691490487727272
mp-998419,BaHfS3,-2.132271587999999
mp-865177,GdNiB4,0.30226707097222305
mp-560493,Ba2V(CuS2)3,-1.308857779999999
mp-567652,Cs2LiYCl6,-2.4818211412643683
mp-24640,ErH3(SO4)3,-2.038452091052631
mp-752726,BaLa2O4,-3.540930698571429
mp-571406,Ga2Pt,-0.5718638647916661
mp-12545,Er3Pd2,-0.7811134539999951
mp-922,CoPt3,-0.047526424999997006
mp-29804,Cr3GeC,-0.059272533
mp-12585,CrRh3,-0.14720329499999701
mp-30164,CsSn2Cl5,-1.3908436603125
mp-510075,Cs7Au5O2,-0.7007308605418691
mp-3412,Eu(CuSi)2,-0.429998627
mp-571085,Ga2BiSe4,-0.639013228035716
mp-867,ErCd,-0.29860216499999603
mp-698702,CaSmMnSnO6,-2.665842373793103
mp-862615,Er2NiRu,-0.45097431249999603
mp-761404,Co5CuO8,-1.256502019642857
mp-1019509,B2S2O9,-2.088806264487179
mp-30196,ErCuP2,-0.9761921873214281
mp-23882,Ca3Al2(HO)12,-2.088920861465517
mp-556364,Ca2SiCl2O3,-3.190218975
mp-12730,Ba2YbRuO6,-2.782053713250002
mp-754684,Ba4IrO6,-2.483818730454547
mp-686742,Ag2H21N7(ClO4)2,-0.23794727636458302
mp-560572,Al(HO)3,-2.033873339285714
mp-17407,Au3F8,-1.089517318181818
mp-775941,Cr2Ni3Sb(PO4)6,-2.232343096607143
mp-12496,CsTmCdTe3,-1.2634230641091961
mp-772408,Ba4Tm6O13,-3.607066081521741
mp-561457,CsAlSiO4,-3.186350407807882
mp-696166,CaH4(ClO)2,-1.7842911258333332
mp-866313,Ba3In(BO3)3,-2.971885077135417
mp-607829,AlTlI4,-0.9711981497222221
mp-721471,CuPH4O5F,-1.735830520803572
mp-568725,Dy(FeB)2,-0.436771019999997
mp-705846,CuH16(ClO8)2,-0.9835480481428561
mp-18167,Ca3Cd2,-0.27349162049999803
mp-756942,Ba3(BrO)2,-2.749880861785714
mp-20581,Ca3In,-0.301133252083332
mp-1013533,Ba3PN,-0.6362765459285711
mp-779491,BaP4O11,-2.753422743035713
mp-754112,CeBrO,-3.227982858333332
mp-1018067,CrFe3,0.063674125
mp-774394,Fe10O11F9,-1.954898309333334
mp-11824,Ca3PN,-1.205423485345237
mp-21343,CeB6,-0.584408567857145
mp-733968,BaCaP2(HO4)2,-2.8055404440561222
mp-11020,GaAgO2,-1.582355479791656
mp-985506,Ac3Tl,-0.16381396812499802
mp-21861,Cu3TeO6,-1.101362166916668
mp-6185,ErCo(CN)6,-0.24473346535714302
mp-22165,Ce(CoB)4,-0.458716993518518
mp-675004,Ge6Bi7O22,-1.807667891428571
mp-579058,Cs4Tc6S13,-0.972455731589674
mp-558224,Dy2(TeO3)3,-2.472540679434524
mp-756978,Ba3(ClO)2,-2.838371934999999
mp-557954,GaN5O14,-0.882440432125
mp-29557,CuW3Cl7,-0.78240204931818
mp-766302,Ba5Nb5O14,-3.034516175833333
mp-560534,Ba3Er2(PS4)4,-1.486449295142855
mp-775019,CoSb(PO4)2,-2.197355643065476
mp-780491,Fe4O3F5,-2.13726015125
mp-21476,Fe2N,-0.152926891666666
mp-997101,AgO2F,-0.6465347304166661
mp-625555,H7BrO3,-1.132288293522727
mp-5957,EuTaO4,-3.351891591222222
mp-680185,CsRe6Se8I3,-0.80964965602251
mp-559348,BaZr(BO3)2,-3.334656806833334
mp-691119,Bi14MoO24,-1.697635304615385
mp-4559,BaCO3,-2.6609345259999992
mp-5321,Ho7Co6Sn23,-0.39648978083333103
mp-505043,Eu3Sb5O12,-2.349628303500001