material_id,formula,formation_energy
mp-28378,HfFeSi2,-0.6500757999999981
mp-23852,Na3H5(CO4)2,-1.73282533641044
mp-20633,PbO2,-1.298118654166667
mp-568560,TlBr,-1.146353669166671
mp-20751,Pu(CuSi)2,0.068068066250003
mp-12553,PrAl3,-0.484099906666665
mp-625941,Te(HO)6,-1.218957849551282
mp-763916,Li5Cr3FeO8,-2.10060891745098
mp-6467,Na2CuP2O7,-2.383092748087028
mp-5598,Sm2SO2,-3.502992607500002
mp-980947,SrCaHg2,-0.5187959737500011
mp-557577,K3ScSi2O7,-3.03779018975
mp-975658,PrHo3,0.013162164583331
mp-759925,Zn2Hg2H2Se2O11,-1.22397862274671
mp-760680,Li2Fe12P7,-0.5162144347222221
mp-776337,Zr2N2O,-2.332094400499997
mp-753260,LaAgO2,-2.568305550416656
mp-8873,LiGeBO4,-2.494826821071428
mp-761683,Na4TiO4,-2.374862463205619
mp-13396,LiIn2Rh,-0.5004476091666661
mp-560860,Na2PtO3,-1.497563052126436
mp-768003,Na5Mn2P2(CO7)2,-2.3321082970817733
mp-15221,Rb2NbCuS4,-1.316151084999999
mp-28589,Rb3Ge2Br7,-1.518546705833333
mp-976863,NaTm3,0.32584916336206804
mp-640825,Sr5(InBi3)2,-0.660296807179481
mp-999298,Pd3Au,-0.049388452499997
mp-755684,SrCa2I6,-1.879215779444444
mp-569671,ZrSb,-0.801805910000002
mp-556809,Sr11(OsO6)4,-2.585758555641025
mp-30456,SrLiBi,-0.9816191580555551
mp-561095,LiHo3Ge2(O4F)2,-3.303458222083333
mp-18852,Na2MoO4,-2.149706168251234
mp-770545,LiAlCrO4,-2.593993404761904
mp-11230,Y2Al,-0.336266310833335
mp-638590,MnTl2GeTe4,-0.40332330453304704
mp-23024,SrBrF,-3.392943195
mp-652366,MoPb5O8,-1.6640317466071401
mp-570412,Yb(NiP)2,-1.061694440190476
mp-19764,Pr3In,-0.35918698874999605
mp-616190,Tl2(ReSe2)3,-0.502335278125
mp-998711,TlGeF3,-2.134181383
mp-973308,MgIn3,-0.010315541249998
mp-778152,Sc2Pt2O7,-2.355756619090907
mp-754162,LiGdO2,-3.201050415833336
mp-978928,SnCl,-0.550427714374999
mp-777672,LiFeF3,-2.751101364666667
mp-972889,ScSn3,-0.252057814375
mp-19967,LuMnSi,-0.527077179032568
mp-8708,Mg(AuF4)2,-2.026663795909089
mp-998366,RbSeBr3,-1.086418258968749
mp-767534,Na2CuPCO7,-2.035364312283457
mp-2947,SmB2Rh3,-0.6756441605555691
mp-30814,Zr9Ni11,-0.37881390550000005
mp-776691,Li3VF5,-3.015990279027777
mp-759287,LiCu2PO4,-1.842320058497024
mp-775210,Sb3P6WO24,-2.343831983466385
mp-775705,Li4Ti2Fe3Sn3O16,-2.313245089464286
mp-972121,Tm(Al2Cr)4,-0.210834441538462
mp-973951,Lu2CuRh,-0.6878928658333301
mp-20939,PrPb3,-0.481632232916666
mp-22036,ZrSbPd,-0.803571210833335
mp-558128,KNd2NbO6,-3.361011512224999
mp-684021,Sn4Sb6S13,-0.29233560724184204
mp-627606,V3(H3O5)2,-1.770473970657895
mp-567395,Li15Au4,-0.35368359289473605
mp-753380,La(BiO2)2,-2.268005356428572
mp-4810,Pr(CoGe)2,-0.569165426333339
mp-757077,Li2Cu2Si8O19,-2.790545232634409
mp-18889,VAg3O4,-1.242050435624999
mp-18256,Mg2B2O5,-3.015306194537037
mp-600084,SiO2,-3.253281090416666
mp-754334,NaTmO2,-3.202578796594829
mp-756722,YbPrO2,-2.942022257291665
mp-758996,Zn5P6H22(NO11)2,-1.5531462344799492
mp-7738,LaSeF,-3.349131063020832
mp-555825,Na4Sc2Si4O13,-3.153178995022489
mp-862857,PaS3,-1.113540152109372
mp-29647,SmSb2,-0.9165387758333351
mp-21554,P3Pb5O12F,-2.372924274948979
mp-570853,SrCeI4,-1.728820405000004
mp-1153,Li2S,-1.503453288055556
mp-743,RbN3,-0.140204309375
mp-650929,Na2Ti9O19,-3.337573271258621
mp-570411,K12In2Se9,-1.247423321149003
mp-555795,Y2CrS4,-1.8658876444642851
mp-6488,KTiAsO5,-2.5627845675729173
mp-11261,YAu,-0.928670779999997
mp-32024,Li3Mn2(PO4)3,-2.533599572489533
mp-775993,TiMn2Fe3(PO4)6,-2.511822717418125
mp-778622,Li3Fe2(SiO4)2,-2.482973830666666
mp-29698,Nb3ClO7,-2.906766186590912
mp-558219,SrLi(BS2)3,-1.177593710984848
mp-672262,La3Zn3Ge2SbO14,-2.653723902826086
mp-31508,KPb2Br5,-1.47434131903125
mp-680008,P6N6Cl10O,-1.023130232624224
mp-721287,Na3AsH14SO10,-1.384578818504756
mp-553121,Sm2IO2,-3.026465084
mp-755974,Na2CuO2,-1.3240365065517241
mp-767265,V(Bi5O8)5,-1.676529137727273
mp-865992,YbSnRh2,-0.905517036249996
mp-30722,ScHg3,-0.25758209812500604
mp-19461,Na5Nd(WO4)4,-2.396076004784482
mp-20566,MgIn3,-0.000200203749997
mp-6194,K4UC3O11,-2.462947380210524
mp-1018123,TiAu2,-0.48334265888888606
mp-542642,KSbSe2,-0.916986029859374
mp-773672,MnFe(PO4)2,-2.309739849212506
mp-971855,Tm2Co3Si5,-0.7231184285000001
mp-755256,LiBiB2O5,-2.409939881851851
mp-554082,Ho2Hf2O7,-4.009504141363635
mp-722684,KAlP4(H2O7)2,-2.442506395867559
mp-676780,LiMn9Se10,-0.9787022173818231
mp-30468,ThBi,-0.533930369999996
mp-31024,Sc5CCl8,-2.037317738214285
mp-22053,FeCu2GeS4,-0.5802735543749991
mp-765360,Ni(Pt3O4)4,-0.712948125862069
mp-26407,Li2SnP2O7,-2.5457480161210313
mp-10596,FeIr3,-0.0430518375
mp-676713,Hf8PbO24,-2.613930104848484
mp-1549,TbPt3,-1.090901282500006
mp-9848,PrP5,-0.6409127319246031
mp-779979,Hf2N2O,-2.529320313249999
mp-578752,Sr11InSb9,-1.084600449603174
mp-31305,Hf(TeCl)6,-0.911166695641019
mp-2133,ZnO,-1.7908991124999991
mp-10117,Mg3(Ni10B3)2,-0.30728921482758403
mp-631466,KSc2Co,1.005569578625001
mp-776618,Li4VCr3O8,-2.425752464583333
mp-755277,Tb3SbO7,-3.417182534545454
mp-766572,Mg3P2(HO)16,-1.891327942548262
mp-605735,Sr3In4Pb,-0.45292685208333205
mp-568917,LaInAg2,-0.40829247624999704
mp-3867,Pr2Co7B3,-0.261954113819443
mp-16598,K3TmSi2O7,-3.091405516416668
mp-542767,Sr2TmRuO6,-2.8894845945
mp-22814,U2Ti3Si4,-0.6028777589999971
mp-976447,NaCrH8(NF3)2,-1.719106890632184
mp-3188,Zn(SbO3)2,-1.884719061666666
mp-541403,Hg7(P2Br3)2,-0.46126116712185106
mp-772497,Er4(B2O5)3,-3.378949036
mp-976582,HfSb3,-0.0110937315625
mp-13429,La2CdRh2,-0.6393202490000001
mp-777010,Li4Ti3V3(CoO8)2,-2.604187353333333
mp-863673,LiPm2Rh,-0.400373985416667
mp-22897,HgCl,-0.621251812500002
mp-569851,Ho10Si17,-0.704333649814815
mp-695,TiCo2,-0.220888345555555
mp-540550,NaH2ClO5,-1.0882969890421461
mp-774463,Li3Cr2(PO4)3,-2.625162658446428
mp-17187,K3Nd(PO4)2,-2.967787349538264
mp-28826,Gd3(MnC3)2,-0.32755356263322405
mp-20436,TaSiRh,-0.8799665616111121
mp-999545,Mn3Fe,0.118937151551723
mp-776059,Ti3NbCo2(PO4)6,-2.757854983829365
mp-769554,LiMgCr3(SO4)6,-2.104854353238095
mp-780111,Li2Mn3(BO3)3,-2.445794096350574
mp-773582,LiTe(H3N)4,-0.5084891327777771
mp-2730,HgTe,-0.19013660875000202
mp-625452,Pr(HO)3,-2.196401362202381
mp-31294,Sr2In3Rh2,-0.48096543
mp-972470,V2Cu3Pb(ClO4)2,-1.637256122499999
mp-558749,RbMnF3,-3.013482878086206
mp-765195,WO2F,-2.315005526249998
mp-530571,Na4Sn3O8,-2.062565315034482
mp-867356,TcRu3,-0.071404015000002
mp-561307,DySCl,-2.466786533437499
mp-626689,Fe(HO)2,-1.346597656499999
mp-40286,NaLiLa2Ti4O12,-3.438849050402299
mp-864664,Na3Np(HO3)2,-2.246821716282328
mp-753298,PrYO2,-3.141396790416667
mp-625614,H9BrO4,-1.173025904910714
mp-2221,Zr2Ag,-0.10917206500000001
mp-31039,Rb6Te2O9,-1.788711969901962
mp-24502,ZnH2(SO4)2,-1.6952027967307681
mp-571293,Rb2BaNb2Se11,-1.217559985986327
mp-2435,HoCo5,-0.094829354166664
mp-2613,LaCu5,-0.141133305833333
mp-6526,NaGeSbO5,-2.078461207672414
mp-770647,Li2SiSnCO7,-2.383577570138888
mp-20176,DyPb3,-0.275221065416664
mp-769552,LiMgCr3Se2(SO6)4,-1.9205744320863092
mp-23520,InPb2I5,-0.7975110845833321
mp-758035,Li3Ti3(PO4)4,-2.882397983406593
mp-21365,InSbS3,-0.522175905687501
mp-21423,Pu2O3,-3.214050472499994
mp-867004,Th2Ni7,-0.43411192416666405
mp-640578,KTiI3,-1.1980045521166671
mp-864954,MgMoN2,-1.03874584875
mp-626787,VHO2,-2.078761513437499
mp-13983,ZnPdF6,-1.9802847675000002
mp-626879,V3(HO4)2,-2.022031077692308
mp-30673,Ti2Ga3,-0.45939359083333403
mp-985585,Li3ClO,-2.064159397
mp-699558,K10Zr3Cd(MoO4)12,-2.308949837601352
mp-764019,Li2TiNiO4,-2.505974840625
mp-27487,Li2ThN2,-1.257313078166663
mp-568548,Mg10B16Ir19,-0.464728596592592
mp-864780,PaAlAu2,-0.458836192499994
mp-13093,La3Ni2Sn7,-0.6441747683333381
mp-555,Fe8N,-0.069032481666667
mp-14407,Rb7NaGe8,-0.203399080867457
mp-866063,NdDyMg2,-0.07710090729166501
mp-780229,Na6Bi2B4PO16,-2.303491093089151
mp-623006,UGa5Ir,-0.43940189392857204
mp-673059,LiSbP2O7,-2.4777712038744593
mp-510697,Zn5B3Rh7,-0.43401868950000205
mp-765597,HS2IO8,-1.4211259369791671
mp-991676,NbCu3Te4,-0.502529962083333
mp-849246,Ti2CdO5,-2.942224596458333
mp-672256,Y5Ga3,-0.497537325624999
mp-24202,Th4H15,-0.563003075592103
mp-975892,PrMgAg2,-0.27457584749999603
mp-1044,UIr3,-0.660581827499997
mp-554443,Na6Se2O9,-1.703786430468433
mp-567543,UHg3(TeCl3)2,-1.376703395486112
mp-18230,Si(Hg2Se3)2,-0.5111246471875021
mp-3762,VCu3S4,-0.8562810200000001
mp-972793,Si2B2O5,-1.015579242592593
mp-3283,RbNbO3,-2.8390510185
mp-753539,SbOF,-2.1291461275
mp-694981,Na4Al3Si3B(HO3)4,-2.5706403129512543
mp-20513,U3MnSb5,-0.289632360325667
mp-778504,Ti5Ni(PO4)6,-2.85464059401455
mp-620652,NaSr2AlP3,-0.8785268332582681
mp-961669,NbGaPt,-0.088440139166665
mp-8285,ZnGeO3,-1.9663922169999992
mp-31326,Mg2In,-0.050700419999999004
mp-601,PrP,-1.742946234821428
mp-770778,VCrO3,-2.437594931999997
mp-1364,YNi,-0.410514708749999
mp-672307,NdInPt,-0.9469256058333281
mp-778141,Sm2Pb2O7,-2.433658827272727
mp-780485,LiVP2HO8,-2.482282523951465
mp-5000,Tl(CuSe)2,-0.31575110962499703
mp-865517,YZnRh2,-0.6096640774999981
mp-24128,ReH4NO4,-1.42112811625
mp-864775,HoAgHg2,-0.31993266541666904
mp-29410,Li2B2S5,-0.9961007786111111
mp-4525,SrRuO3,-2.183989452000004
mp-770248,LiMnPCO7,-2.180117867355203
mp-541272,LiGe2(PO4)3,-2.478640178181215
mp-29764,RbHF2,-2.4853297609375
mp-768770,Mg(ReO4)2,-2.3430711287878783
mp-30393,LuInAu2,-0.760536086666668
mp-546011,YZnAsO,-1.966997731874999
mp-672212,NaNb13O33,-3.016015173752752
mp-17807,LiUNbO6,-3.215188622592592
mp-28383,KNaS,-1.285839426354165
mp-775211,Ho2WO6,-3.317423112222221
mp-780543,Li2MnCr3O8,-2.160714625328407
mp-18036,Th(NiP)2,-1.04754203885714
mp-756927,Li5Nb2Cu5O12,-1.902947469444444
mp-757131,Sn(PO3)4,-2.465107194915966
mp-753162,Li2BiO3,-1.851862015277777
mp-773901,KZnP2O7,-2.355246673321428
mp-979936,RbYb3,0.7211634159374961
mp-558990,K2Sr(PO3)4,-2.837911568582707
mp-557812,Ti3O,-1.565612353541665
mp-28368,TlAuCl4,-0.99616455138889
mp-776880,Li2Fe2Ni(PO4)3,-2.331602303029761
mp-2409,Ni5Sb2,-0.12101837357142801
mp-730945,KAl2P2H5O11,-2.411888247751699
mp-995122,NbS2,-1.305522709999997
mp-989189,SbBrO,-1.421561615
mp-27189,Si3Cl8,-1.212598841818181
mp-557763,Nd3NbO7,-3.643603394090909
mp-20201,NdZnSn,-0.6437857999999991
mp-22595,UAsSe,-1.121767541614584
mp-571428,MgNi3B2,-0.377924163333333
mp-867253,LiZn2Ir,-0.38376491916666505
mp-677378,TiNbTl(O2F)2,-3.00778477462963
mp-21622,Na3InAs2,-0.6001142727083331
mp-22470,La(FeAs3)4,-0.39681302676469504
mp-759207,LiSb(TeO4)3,-1.5406538549019602
mp-28178,NaNbCl6,-1.5466882959375
mp-30761,Li7Pb2,-0.31826043703703805
mp-978965,Th3Ni,0.18052051000000302
mp-23404,TlBrO4,-0.48934782888889006
mp-1001024,Y2MgS4,-2.156400925714284
mp-770636,Li4V3Co2Sb3O16,-2.087832082976191
mp-653925,Sr2DyGaCu2O7,-2.497128751858973
mp-758245,Li3SiBiO5,-2.422078969499999
mp-773707,Li4Ti3Mn2V3O16,-2.7378953981855503
mp-5568,Nd3Co11B4,-0.24581486882844503
mp-974568,Re3Bi,0.9890701712499991
mp-978522,SmYIr2,-0.7126894312500001
mp-18719,KLu(WO4)2,-2.690631258243055
mp-19902,UCuAs2,-0.479361888749998
mp-974820,Rb3Tc,1.248042240624999
mp-757224,Th4P6O23,-3.393899319935062
mp-733932,InH5(NF)2,-1.131203128291666
mp-982384,TbH3,-0.7222324707291671
mp-13530,SmAsO4,-2.798526974583333
mp-756645,Li5Ti3O8,-2.958857431041666
mp-608106,P4S3I2,-0.377301850952379
mp-18732,TiNiO3,-2.596717666666666
mp-972524,SmSiAg,-0.6166301522222191
mp-771710,Li3Zr4(PO4)6,-3.081503326428571
mp-631428,TlCoW,1.413196156666671
mp-673644,Tb2S3,-2.3603784541875
mp-9583,K2ZnF4,-2.858067956357142
mp-20380,HoMnSi,-0.580927030865358
mp-693892,Sr2CrClO4,-2.7407924281250002
mp-861974,PaCdPt2,-0.719785839999997
mp-28731,V6C5,-0.6353447772727261
mp-756402,YHO2,-2.945392833437499
mp-33737,Mn3Cu3O8,-1.4737661195566512
mp-558862,NaGe4(PO4)3,-2.283527078765393
mp-540379,SbP2O7,-2.336045457928571
mp-13610,ZnPbF6,-2.250629001874999
mp-20628,NaIn,-0.249961279999999
mp-3448,KMgF3,-3.536225051449999
mp-764405,KFeH2S2O9,-1.8410944513166672
mp-29178,TePbF6,-2.3783610934375012
mp-559057,NbTl(BO3)2,-2.685720872166668
mp-773128,Li10Co4O9,-1.749581163405797
mp-27693,Sc(BC)2,-0.48712965950000103
mp-561294,SrLi2Nb2O7,-3.009051929305555
mp-740736,NaP3H10(NO5)2,-1.691696378281073
mp-553903,KNa9In2O8,-1.654022357649855
mp-626337,Sr(H8O5)2,-1.357471901851852
mp-558165,SbC(Cl2O)2,-1.3413475296875
mp-5909,Zn2GeO4,-1.9692918614285722
mp-636565,YbIn5Ir,-0.43477009785713705
mp-4482,NaSbO3,-2.056832527275863
mp-767255,Li10Cr(SiO5)2,-2.459160537753622
mp-4630,Li2RuO3,-1.858899336111108
mp-974925,NdY3,0.073709145624999
mp-628773,SnSe,-0.377668267031253
mp-21021,Mo3Se4,-0.5819315730357171
mp-973843,Pa2SbTe,-0.627868816666667
mp-1001787,LiRh3,-0.146932781666667
mp-13139,SrLiGe2,-0.530728705208333
mp-1831,SrAu5,-0.484339630000003
mp-560322,K2RuN3Cl3O5,-1.239940103535714
mp-38152,Sr(SmSe2)2,-2.223309766607144
mp-504476,Cu2PO4F,-1.858791852142857
mp-542632,GdNi,-0.41023893499999803
mp-864634,EuCd3,-0.30332289374999905
mp-1008926,CrTe,-0.087500668333333
mp-756440,Er2Pt2O7,-2.478018743636361
mp-752402,BaSrI4,-1.927716526666666
mp-8934,Cs2SnAs2,-0.42306429686207003
mp-581635,Cs3Te17Mo15,-0.62075135663711
mp-10316,CeCdAsO,-1.853373068124999
mp-685353,Bi15PO25,-1.750546960662022
mp-21945,Ge3Ru2,-0.333466139749998
mp-13660,Ca4Sb2O,-1.781754134999996
mp-696965,Cs3TbF6,-3.508558099000001
mp-770711,GeWO4,-1.954579286249999
mp-28879,Ca5P8,-1.057331754908424
mp-541785,GePdS3,-0.6512282284999991
mp-1008527,B2CN,-0.42388382755208204
mp-684653,Cu2Se,-0.026545130520832003
mp-673837,Ba8Bi4O17,-2.339886761551725
mp-1019508,AlGa3N4,-0.9113563118750001
mp-1009641,CoTe2,-0.16567397
mp-639150,BaIn4Ir,-0.34201156444443903
mp-30963,Er2Zn17,-0.259269366403507
mp-9578,Ba3(AlSi)2,-0.345244661428569
mp-625136,CsHO,-1.487681961968391
mp-867912,Ba2SnHg,-0.6317105993750011
mp-769052,Bi4(BO4)3,-1.966279271710525
mp-505465,As2Pb2O5,-1.639667804722222
mp-34196,Ca(Sm2Se3)4,-2.154587452678578
mp-1256,HoGa2,-0.6217118166666661
mp-29567,CuSe2Br,-0.584083218046874
mp-9567,Ba(MgSb)2,-0.8334507839999981
mp-29946,IO2F,-1.135413572499999
mp-21518,CeMgTl,-0.19824427166667002
mp-676339,BaTa2O6,-3.206231359222223
mp-10337,BaYAgTe3,-1.4644986619444431
mp-676260,Ag9Te4Br3,-0.32156099541666505
mp-7977,CsSmO2,-2.890176996163792
mp-4202,BaAl2O4,-3.448150932499999
mp-631418,CuRe2Cl,1.20220839472222
mp-734045,Cu2H2Se2O7,-1.127199978052884
mp-17281,Cu2PO4,-1.7416102649489802
mp-551,BaAl2,-0.198847718333334
mp-11265,BaCaSn,-0.676116901666669
mp-510050,Dy2In16Pt7,-0.6349174563487211
mp-32758,Ag2Se,-0.09122650968749901
mp-722941,CaZn2H12(BrO)6,-1.393759417407407
mp-1018080,CrCo2Bi,0.38314022000000103
mp-555273,Ca3Ge(ClO2)2,-2.9212389512500003
mp-22936,Ca2NCl,-1.796587630312501
mp-844,Ca3N2,-0.9597206842499991
mp-998306,CsPdBr3,-1.235675262931034
mp-674320,Ce9DyO20,-3.85047666372222
mp-685120,Al2Se3,-0.9808548856874991
mp-24181,CsGaP3HO10,-2.52574934764586
mp-630511,Ca2FeClO3,-2.612166277857142
mp-779332,B2TeO6,-2.061545466388888
mp-766349,BaCaI4,-1.90361912125
mp-866286,AcMg,-0.059893923749996004
mp-754678,BaTaO3,-3.269091094466667
mp-766287,BaCa2I6,-1.846682410277777
mp-21876,Ba3NaIr2O9,-2.152779337425287
mp-571306,Ca2Zn2CuP3,-0.76274758299107
mp-605912,Al2NiCl8,-1.48517698590909
mp-850292,Dy2H16S3O20,-1.8294740279471542
mp-680095,CdI2,-0.824939678499999
mp-28922,Ca2Si5N8,-1.406582083333332
mp-567386,Cs2Cd3Te4,-0.880730419999998
mp-1018066,CrSnRh2,-0.289901121249998
mp-19504,BaV2(CoO4)2,-2.2868378326923082
mp-977367,CdInRh2,-0.363751637499998
mp-631517,BaBeGa,0.8494060525
mp-769280,Ca5Ta4O15,-3.403675276013889
mp-17836,BaNd2BeO5,-3.436739420555556
mp-6914,CaGa,-0.5294938375
mp-755260,Cd4B6O13,-2.351378954782608
mp-699575,CoSiO3,-2.45051476425
mp-754853,CaHfO3,-3.820938063
mp-752514,BaSrI4,-1.9797080733333332
mp-1008921,CdN,0.9419105625
mp-19913,Ba3(InP2)2,-0.785818917433863
mp-559826,ErCuS2,-1.582563287239565
mp-542239,Cs5Hg19,-0.21440217940734202
mp-1019604,Cs2B2S3O13,-2.221461940257184
mp-989405,Cs2LiInBr6,-1.701866446931034
mp-17985,Ca5(GaSb3)2,-0.842812888461537
mp-755040,Cu2O3,-0.787026701
mp-571502,Ga(BiBr)4,-0.721268935277778
mp-10584,Ba2LiOsO6,-2.442012323333333
mp-865606,CsTaGeS5,-1.169752758061062
mp-10368,CoPSe,-0.6121159002455361
mp-17566,Ba5P4,-1.010239834841253
mp-11274,BePd,-0.5927108225000001
mp-19388,BaNi2(AsO4)2,-1.9536336480769232
mp-20679,Co3SnC,0.030779726000000004
mp-771944,Ba3La2Cl12,-2.877980995588235
mp-22724,CeZrF7,-4.176784459999995
mp-768314,BiB2O5,-2.248477877604166
mp-645326,Al3Bi5I12,-0.7034518745
mp-770187,Cr3TeO8,-1.9378918397222211
mp-394,CeZn5,-0.26003228499999703
mp-18786,Ca2CoSi2O7,-3.066876938958333
mp-11290,CaSn3,-0.40684440874999606
mp-27265,AuClO,-0.598648675555555
mp-768995,Ba2Y5Cl19,-2.689171069423077
mp-9690,Ca(AlGa)2,-0.40727522600000005
mp-1813,Ba2Mg17,-0.029599811842105004
mp-684006,Ag3TeIO4,-0.8476599496296281
mp-765612,Ba8Bi4O17,-2.351263315000001
mp-16452,BaLa2ZnS5,-2.150266564722222
mp-569158,Dy2Co7B3,-0.386842039652776
mp-754138,CsDyO2,-2.960836056580458
mp-20841,Ba2CaIrO6,-2.537359926
mp-556666,CaBiCO4F,-2.518562926875001
mp-777294,Bi2(SO4)3,-1.8314688134558832
mp-752573,Ba(NaSi2)2,-0.119602394679803
mp-573721,Cs2SiAs2,-0.443840688862069
mp-998866,C,2.756672782499999
mp-679991,CuW3Br7,-0.7950673230681811
mp-763923,Co3(OF2)2,-1.806017977222222
mp-753775,BaCaI4,-1.87538266
mp-561511,FeAsS,-0.6136610383333331
mp-764747,FeOF,-2.040571895833333
mp-1009823,BeB2,0.12022825555555501
mp-8557,BaPaO3,-3.563953094999999
mp-6430,Ba2YReO6,-3.026363982249999
mp-1018696,EuCdPb,-0.418606240000006
mp-30377,ErPbAu,-0.657796673333332
mp-782656,Co2OF3,-1.924413580833333
mp-567743,AlSb2(TeCl2)2,-1.230065133148147
mp-560394,AsPbClO2,-1.635282464249999
mp-4123,ErTlS2,-1.734548867083325
mp-989637,BaReN3,-0.6977909885000171
mp-571222,CsBr,-2.046601577327585
mp-5135,Dy(CoB)2,-0.552899279999998
mp-30452,DyNiBi,-0.668153847222222
mp-761614,CoCu(PO4)2,-1.926310803690476
mp-19741,CeNiC2,-0.22633728999999903
mp-540735,Cs2UBr6,-1.9703121910344832
mp-752933,Cu6OF11,-1.7017564461111112
mp-989537,Cs2TlInF6,-2.787644960931035
mp-630403,Ca2MnGaO5,-2.717583835603448
mp-570552,CdI2,-0.8267243815384601
mp-28204,CsH7O4,-1.376566679867097
mp-636773,Ce3(AlI)2,-0.791197818571427
mp-17922,Ca2P2O7,-3.213395772435064
mp-569981,DyAl3,-0.47028015312499705
mp-20766,CeCuGe,-0.582538709999996
mp-1013548,Ca3SbN,-1.202770444999998
mp-699213,CsZn2P2HO8,-2.372955266442205
mp-865037,CeMgAg2,-0.16235838458333202
mp-6452,BaSm2ZnO5,-3.187293293888888
mp-1019584,CaAl2SiO6,-3.4282547425
mp-756637,Ba3GeO5,-2.819255811111111
mp-9321,Ba2HfS4,-2.208330561428571
mp-4870,Cu(BO2)2,-2.292747814523806
mp-1707,BaN6,-0.182876322857144
mp-18977,Ba2CaWO6,-3.02969635
mp-755175,Al2O3,-3.344650779
mp-546190,Ag2O3,-0.355224625666665
mp-673678,Ba2In2O5,-2.271091594259259
mp-753287,CaCdO2,-2.344317947499998
mp-811,BaPt5,-0.473208788333333
mp-11288,Ca3Hg2,-0.505499445000001
mp-758007,Ba2CaP4(H3O8)2,-2.56185141986453
mp-30274,AcBrO,-3.396185964166668
mp-10692,CoGe,-0.049292305000001
mp-641923,Cs2SnBr6,-1.609659967145594
mp-1714,FeSi2,-0.395635093333333
mp-11478,GaAg,0.073309513958331
mp-568006,DyFe5,-0.043887316944443006
mp-774832,Ba10Li2Bi4O21,-2.368056011801802
mp-21153,ErGeIr,-0.9507154766666671
mp-8762,Er2S2O,-2.974195047499999
mp-2642,CdAg,-0.0530409375
mp-12465,Co(TePd)2,-0.24083794499999803
mp-1008277,CrCo2As,0.021477920624999
mp-510376,CeBRh3,-0.799905212499999
mp-569220,ErRu2,-0.36259046999999806
mp-572778,Cu3BiTe2ClO8,-1.253028769555555
mp-631511,BiBTe,1.101091086388886
mp-15079,Cs4KLiGa2F12,-3.081775397710201
mp-31462,Er5BiPt2,-1.048739989583332
mp-705547,Fe2O3,-1.547238421249999
mp-626552,Ca(H8O5)2,-1.3750569087037041
mp-735529,FePH6NO5,-1.5059890897959192
mp-1018276,CeGa,-0.625698357499999
mp-35082,BH6N,-0.30003574546875
mp-1008554,Al3V,-0.205302369999998
mp-1976,CaGa4,-0.42335285200000006
mp-984765,Ba3Te,-0.648535744166666
mp-640899,Ce2Zn2Cu5,-0.16053126277777702
mp-30150,GaBH6,0.022808687916666
mp-756469,DyLuO3,-3.989102142666665
mp-21348,Ba2EuTaO6,-3.332704743233333
mp-775774,AgBiO3,-1.024969332333334
mp-560993,CaAl12Si4O27,-3.36388194125
mp-561246,Al2Si2Pb2O9,-2.874237976666667
mp-557741,Ba17Tm16Zn8Pt4O57,-3.014212638284315
mp-8818,Ca2ZnN2,-0.848958886000002
mp-23434,Al2CuCl8,-1.4039510040909091
mp-18990,Ba2Mn(BO2)6,-2.954110900496715