material_id,formula,formation_energy
mp-975801,PrTlAg2,-0.24449823708333301
mp-740710,Na2LiP3H8O13,-2.031010439815575
mp-864642,HoSnRh2,-0.806263299999998
mp-561051,Rb2Sb4S7,-0.822465349807691
mp-1013864,Na3Fe2(GeO4)3,-1.787809153831896
mp-8858,RbCuF3,-2.337212868500001
mp-28846,TaCoTe2,-0.5339150382916671
mp-542078,K2LaP2Se7,-1.174220363140996
mp-600003,SiO2,-3.2583776395833333
mp-850964,Li3CrO4,-2.093077984374999
mp-5244,Ti2SbP,-0.99371750157738
mp-752460,LiAgF4,-1.8638333536111111
mp-714883,MoO2,-1.81160759
mp-705516,Li10Sn(PSe6)2,-1.041735386229761
mp-644879,MgSiO3,-3.1802107705
mp-10675,Ti3AlN,-1.026473475749999
mp-2173,P2O5,-2.449045707040817
mp-974751,Rb3Zn,0.18880026437499903
mp-3180,Ta2Te2O9,-2.497068913692307
mp-672372,K2S5,-0.6399772866517861
mp-28419,K2TeSe3,-0.9424683401163181
mp-758741,Li(FeP)2,-0.604008764523808
mp-9350,ScGeAu,-0.7906717483333281
mp-28969,Pr2NCl3,-2.364161084930555
mp-504874,YB7Mo3,-0.587516577954545
mp-762023,LiNiPO4,-2.29410252292517
mp-9208,V2B3,-0.833172252499998
mp-676572,NdPb6F15,-2.8485724109469572
mp-16118,RbDy2CuSe4,-1.726470330651039
mp-554625,SbS2NCl8,-0.40138076617671903
mp-540296,Li2Mo(PO4)2,-2.54626705430403
mp-754217,SmIO,-3.059044779999999
mp-26299,LiSnPO4,-2.454018183996598
mp-10405,Yb(AlSi)2,-0.38081982900000005
mp-40373,In14Ga3Pt2O8F15,-2.153362024781745
mp-989190,ScBrO,-3.1237904716666662
mp-15785,KDyS2,-2.171577768593749
mp-1019138,SmSbTe,-1.363295573888887
mp-722977,Na2Si(H3O2)6,-1.52397279584117
mp-626566,Ti3H2O7,-2.873575466458332
mp-772561,Li2CuSb(PO4)2,-2.245474240068026
mp-17678,Sr(ScS2)2,-2.282851445535714
mp-10789,Yb2Ge6Pd,-0.5639720986111101
mp-9025,YSiAu,-0.9254830983333351
mp-11869,HfSnPd,-0.782001370000003
mp-770415,HoErO3,-3.9493829286666653
mp-759169,Li2CuF6,-2.142215233703704
mp-18951,LiFePO4,-2.464017455425169
mp-21381,ThPb3,-0.32055606750000004
mp-555851,Na2Cd3(P2O7)2,-2.422010153101305
mp-555836,Sn2PClO4,-2.139350682455357
mp-668,PrGa2,-0.8078835105555551
mp-762391,Li2(NiO2)3,-1.284015240606061
mp-1343,NdNi2,-0.310362037499999
mp-31018,SrAgBi,-0.696440603333333
mp-864797,NdCrSe3,-1.489497070406249
mp-2520,TmSb,-1.292321835000002
mp-631194,La3Ga4Cl,-1.073805070624991
mp-6026,Na2Mg(CO3)2,-2.248876110705329
mp-32679,Nb10C7,-0.540557961176469
mp-15558,Li3GaF6,-3.0944041655
mp-16590,Tb4Si2S3O7,-3.266869941979166
mp-11365,Ti3Cu,0.024269343333333002
mp-558378,Pd3S,-0.262081896953123
mp-985831,HfSe2,-1.564946299374999
mp-770673,V5Sb(PO4)6,-2.543665644107141
mp-763184,Li3Cr3CoO8,-2.081998334
mp-962061,YMgTl,0.34650598388888704
mp-770849,VCrO3,-2.439438889999998
mp-530738,Li10Mg7Cl24,-2.188582393373984
mp-10706,ZrRu3C,-0.377479948000001
mp-982778,Zn3Se,0.017744683164062
mp-810,NiSb,-0.25422509999999904
mp-20932,NbNiP,-0.838649183214285
mp-29212,Tl4PbI6,-0.8644631975757601