material_id,formula,formation_energy
mp-631403,CdPOs2,0.844021450505948
mp-569879,Cs2Ta6PbCl18,-1.7934185156781601
mp-17786,Ba(SmTe2)2,-1.7951484220238112
mp-1019746,K2Ca4Si8O21,-3.287697046557144
mp-23768,AlZnH4O2F5,-2.378578509615384
mp-989543,Cs2BrCl6F,-1.201150333931035
mp-22189,In6TeO12,-1.901781515087719
mp-11477,HoSn3,-0.40380145999999706
mp-24118,H10SO8,-1.396475587105267
mp-2460,Er2O3,-4.022894670833329
mp-1009015,IrN,1.346545957500005
mp-29843,Bi2Se2Cl7,-0.8055432908749931
mp-531956,Hf3Sc4O12,-3.976683565263156
mp-30170,Ba4Ge20Pd3,-0.34043361351851803
mp-22670,HoGeRh,-0.9797933808333331
mp-29302,Ba3(GaS3)2,-1.792433225454546
mp-554497,CuSb2(XeF5)4,-1.746806239259259
mp-690511,K10Co4O9,-1.414203774239129
mp-567594,Cs2HgI4,-1.260320411687192
mp-774191,Fe3OF7,-2.375340365454545
mp-771640,BaSrI4,-1.9414793664583332
mp-541450,In2(SO4)3,-1.925639973872547
mp-28708,In3(PO4)2,-2.295268564945052
mp-20817,GePtSe,-0.7084225741145841
mp-25906,Bi(PO3)4,-2.376695603739495
mp-27526,K3InF6,-2.989521906341664
mp-15639,HgRhF6,-1.633558684687502
mp-554554,K9Bi(PS4)4,-1.139530151794046
mp-760084,Cu8O7,-0.8315388423333321
mp-6027,Ba2Tl2CuO6,-1.784656988333334
mp-558853,AsC3N3F8,-1.5069386755000012
mp-989634,CaTcN3,-0.561237609749998
mp-29909,Ba4I6O,-2.271982365909091
mp-559602,AgSb(S8F3)2,-1.14026821361111
mp-9415,Ba6Ni25S27,-0.9339025755603451
mp-561068,BiAsO4,-1.771183774166667
mp-8876,Ca4Al6SO12,-3.380591705543477
mp-22141,BaIn2,-0.47692720111110903
mp-13603,CdB4O7,-2.649513388680555
mp-16905,Ba2MnTe3,-1.460359264655172
mp-504723,Ba2NiWO6,-2.563658962499999
mp-505268,BaLu2CuO5,-3.132618489259259
mp-768427,Ba2YBr7,-2.42637815
mp-28416,Ce3Sn7,-0.587013770499995
mp-6238,Ba2Ta6Te2O21,-3.073914786849462
mp-30425,BaBe13,0.038360302142856004
mp-23807,AlHO2,-2.6111327653125
mp-631504,BaSiTc2,1.002306545
mp-27356,AsO2,-1.584565949166665
mp-12137,Ca(ZnSi)2,-0.26479935399999804
mp-8237,Ba(AsPd)2,-0.7588625250000001
mp-18723,BaV2(NiO4)2,-2.271684773846154
mp-4417,Al2(SO4)3,-2.3349570783823532
mp-18701,Ba3YRu2O9,-2.621688098
mp-18228,Ba3NaSi23,-0.043315850977011
mp-19057,CaNiP2O7,-2.721168939935063
mp-568398,CaBiAu,-0.8070770083333371
mp-779518,BaP4O11,-2.773254469285713
mp-615789,Ba2(CuO2)3,-1.787688270454546
mp-13407,CeAgPb,-0.348359378888885
mp-13933,Ba2HoReO6,-3.050409025749999
mp-694922,BaLa5TiCr5O18,-3.218606116444446
mp-4441,Ca(CuGe)2,-0.411326418
mp-558446,AgHgSI,-0.42536662291666705
mp-543046,CsScP2(HO4)2,-2.6988984922457773
mp-696961,BeH4NF3,-1.873601965555555
mp-556139,BaZr(PO4)2,-3.287506394107157
mp-21490,CeSnPd,-0.83661813583333
mp-17024,Ba2NbN3,-1.157705022500001
mp-29228,CsSrN9,-0.16103413443181402
mp-6968,Cs2KCuF6,-2.570865261656034
mp-608358,CuAgPO4,-1.6886886046513592
mp-28742,Ca4Ni3C5,-0.18111105458333301
mp-29794,Ba2PdF6,-3.292978790000001
mp-733877,CaB3H13O12,-1.8546589721120692
mp-11000,CaB4O7,-2.9946631372222203
mp-669377,Ba2CaWN4,-1.1438251190625
mp-554627,Cu6PS5Br,-0.468166617472527
mp-20155,CoSn2,-0.05180113000000101
mp-630923,Ba3Pb5,-0.506141184999996
mp-6770,BaLa2MnS5,-2.124826997270114
mp-27869,Ba2PCl,-1.8174280386607151
mp-637194,Cs3Sc2Cl9,-2.377844639107142
mp-770372,CeHfO4,-3.926053372916666
mp-9075,CdCuF4,-2.150013655
mp-571339,Ba(CrAs)2,-0.45892746100000004
mp-3955,AlPO4,-3.127119481884919
mp-782663,Co3OF5,-2.066775228333333
mp-977359,CaSnAu2,-0.5924160312499981
mp-697044,Ba2H6Os,-0.517956494166666
mp-730446,AlH10SO9F,-1.7268228541477262
mp-6575,Ba4Na(BO3)3,-3.050984258095842
mp-684604,CuS2,-0.08546479538194501
mp-505213,Ba6Na16N,-0.05578653508995401
mp-20846,CaIn2Ir,-0.566189015312499
mp-1019731,EuAl3(BO3)4,-3.139404160583333
mp-22133,Eu(ZnSi)2,-0.33761572300000103
mp-540077,Fe(PO3)4,-2.344249596092436
mp-753355,Ce5Y2O13,-3.89040464625
mp-669391,Ca4Zn2Cu3P5,-0.8041436288010191
mp-31485,Ga5Pd13,-0.554598818333333
mp-607738,CeZnRh,-0.6792832279166651
mp-560100,CdCu2(BO3)2,-1.8614182557575751
mp-634113,Cd2H2SO6,-1.626804096363636
mp-643439,BaMg2H8Os,-0.396772994999998
mp-1231,Cr3Ga,0.15223770749999901
mp-768958,Ba2Y5Cl19,-2.704866088653847
mp-761574,CoSnO3,-1.7440109039999991
mp-2360,CaGe,-0.7516937049999991
mp-675514,Ce3AsS3,-2.203072986919648
mp-10529,Er2AlSi2,-0.763127557333331
mp-867904,AlGeRu2,-0.517801542499999
mp-504590,Ca2Si3PbO9,-3.162365873666667
mp-30365,BeAu,-0.136192663750001
mp-772195,Dy3Al5O12,-3.697212915499997
mp-5104,CaZnF4,-3.407937449166665
mp-561226,BTe3(OF5)3,-2.343432184280303
mp-13820,Cd3SiO5,-2.028223059444443
mp-554899,CsAlF4,-3.6381687611111113
mp-560097,CaTeO3,-2.397842235
mp-754701,CaTiO3,-3.527734468666666
mp-11772,Ba3Ti3(BO6)2,-3.342956696916667
mp-12003,Al9Ir2,-0.5658966736363621
mp-555862,CsZr(NO3)5,-1.350357588847962
mp-20650,CeCrGe3,-0.426064556999998
mp-22204,Co2P,-0.40633885349206106
mp-557448,Ba2CaUO6,-3.550436109999999
mp-1016849,CdRuO3,-1.0791255770000001
mp-984717,BeNi3,-0.161229593749999
mp-27662,CsI2Br,-1.055588396163791
mp-33606,Ba(PrSe2)2,-2.190798565386904
mp-4096,CeAlO3,-3.614738332
mp-570662,Ba4Ag3Ge20,-0.259427691851851
mp-3092,DyB2Ru3,-0.47139932166666604
mp-1009829,Be2Si,0.25882476333333304
mp-558137,AlBPbO4,-2.720201696845237
mp-559759,CaAlBO4,-3.322331291309524
mp-766108,Ba3LiTi5(SbO7)3,-2.981115243636364
mp-28149,Bi9I2,-0.15641075409091001
mp-1019602,Cs2Al2B2O7,-2.9746650486648982
mp-769039,Dy2TeO6,-3.010003428981482
mp-568809,Ba5Al5Pb,-0.330826060909091
mp-20723,Ca2PbAu2,-0.701022883999998
mp-34728,Al2CuO4,-2.6576012366666673
mp-706426,Ca2P2H4O9,-2.522842363487395
mp-29656,AgBiTe2,-0.18614019312500502
mp-3172,Ag3AuSe2,-0.14919083427083002
mp-557274,Cu4Si2NiS7,-0.6728928866071421
mp-697814,CoP2O7,-2.032054207428571
mp-997098,CuPtO2,-0.832393713749999
mp-9774,Ba4Sb2O,-1.6512220507142832
mp-996968,AgBiO2,-1.113817327916666
mp-875,AlOs,-0.49013171
mp-983559,CePmZn2,-0.248268974374998
mp-642331,Ca19In8N7,-0.7612598602450931
mp-9732,BaNaP,-0.7632014775629471
mp-744672,Ca2Mn2Si4H6O17,-2.409652112205229
mp-558595,Ba6Ru3(ClO6)2,-2.428693908695653
mp-27904,FeSbS,-0.5932567766666671
mp-1013734,Ba3AsN,-0.7428217785000001
mp-774691,Ba6Na2P2Ru2O17,-2.728408405587736
mp-774308,Fe5O7F3,-1.728092207
mp-9747,B4PbO7,-2.647339741388887
mp-767530,BaNa3PCO7,-2.535602298752368
mp-19265,DyNiO3,-2.501074798833333
mp-625596,H9BrO4,-1.168541042410714
mp-6973,CsNaS,-1.274295310937501
mp-31016,Ca4Nb2O9,-3.3351709735000012
mp-570769,CaInCu4,-0.18192813333333402
mp-30133,Ba(CuTe)2,-0.8928087441666661
mp-561104,Ga(IO3)3,-1.0737182925
mp-27617,Ce2SeF4,-3.808537906049131
mp-30475,CaHg11,-0.052588333680546
mp-21727,CuGe5Pb3O14,-1.880478839782607
mp-31120,DyScO3,-3.961055700833332
mp-31020,AsI5F6,-1.446461231874999
mp-997018,AuClO2,-0.16159608999999903
mp-7785,CsCu4S3,-0.475161472304687
mp-571353,BaSn5,-0.269230147499996
mp-580941,AgI,-0.46775989833333204
mp-21383,Eu(SiRh)2,-1.058569800999998
mp-685969,Ag8GeTe6,-0.059042925499992
mp-1006886,CeS,-1.869642691406248
mp-744268,CsFeH4Cl3O2,-1.490824513832288
mp-768680,CrP2S7,-0.630278421178569
mp-753763,Ce5Dy2O13,-3.904103072916665
mp-862706,BeCo2Ge,-0.29541524750000003
mp-867310,CeSnAu2,-0.656840798749994
mp-755350,BaLaI5,-1.899186180714286
mp-19401,CrPO4,-2.59617238077381
mp-14398,CaSn(BO3)2,-2.837426864333333
mp-22658,Co2NiS4,-0.745516640714294
mp-674981,Ag3SI,-0.250059037499998
mp-21119,CeNiSn,-0.590188871666665
mp-675266,Ca3(HO3)2,-2.081792212045454
mp-20324,Ba2LuCu3O7,-2.195898728589743
mp-562920,CsAl(SiO3)2,-3.241411223965518
mp-695815,BeP2(HO)4,-1.660014346071428
mp-1591,Al4C3,-0.23825637285714302
mp-569496,Ce(SiAu2)2,-0.461635238571424
mp-16565,CdCu2SnSe4,-0.599961899296874
mp-94,Cd,0.0
mp-559557,Cs2Na2B10O17,-2.7851141897979232
mp-18504,Ca3(GeAs2)2,-0.9285455169444431
mp-27554,Ag3AuS2,-0.09485799760416501
mp-606338,BaCa4(CoN2)2,-0.775539293181818
mp-851110,Ba9La5I33,-1.9251903139361701
mp-568476,BiPd2Pb,-0.275683045625001
mp-11965,Ce2CdPd2,-0.651066946
mp-4807,AgAsF7,-2.1067146368518532
mp-30315,Ca3BN3,-1.2842448612500021
mp-643392,Ca(HO)2,-2.129321297999999
mp-540696,Ca3(SiAs2)2,-0.981333039166666
mp-12797,BaBe2Si2O7,-3.30665925
mp-6018,Ba3NdRu2O9,-2.573923947166667
mp-866481,Co2(SnTe)3,-0.421919233125001
mp-505517,BaNb4O6,-2.728184333636361
mp-762032,Ba4Li4Ti19O44,-3.393986905305164
mp-5869,Ca2CuO3,-2.528575830833333
mp-8396,CsEuF3,-3.573640819000002
mp-12911,Ba2LaRuO6,-2.780421626499999
mp-1241,BaAg2,-0.28819284777777604
mp-571439,Ce10Ga5Br4,-0.8741364990789451
mp-9040,Ca3AuN,-0.860311607749997
mp-541765,Ba9(NbN6)2,-0.8774315854347831
mp-30974,CsWCl6,-1.6369536524568962
mp-637112,AsS7IF6,-1.190306698555555
mp-1016835,CaRuO3,-2.061455217
mp-10516,Dy6FeTe2,-0.696350380370368
mp-560851,CsIOF4,-2.1671620345936002
mp-14002,Ba4GeAs4,-0.9700582608333331
mp-541412,CsYP2O7,-3.137389639221898
mp-867900,DyCdRh2,-0.555099917916664
mp-567752,Cs2In3,-0.296690023000002
mp-28759,Al7(TlS4)3,-1.262489661818182
mp-37405,Al5CuSe8,-0.9072566873214271
mp-849606,Cr4OF11,-2.8804418531250002
mp-985701,AgAs3H2O9,-1.4163172241111122
mp-530033,B8O,-0.6041677368518521
mp-557482,Ca5As3O12F,-2.832639119642856
mp-554109,CuSeO4,-0.994196251223957
mp-557715,Cd(AuF6)2,-1.2680480613333311
mp-2624,AlSb,-0.252975485
mp-675880,Cu2SnTe3,-0.17230904533333002
mp-35078,BaMnO3,-2.476717523086208
mp-16529,Al6Ru,-0.353180652857143
mp-753990,BaY2F8,-4.302502633636364
mp-542293,Ba11Bi10,-0.890440683333335
mp-998322,CsInF3,-2.610831457500006
mp-676250,Bi2Te4Pb,-0.338825842857147
mp-755597,Ca2CeO4,-3.551315842857142
mp-9277,Ce2CrN3,-1.441053632499998
mp-38683,Co2NiO4,-1.189508992142857
mp-773072,Ba8LiNb7O24,-3.173765336583332
mp-8487,CaSbPt,-0.9770890066666671
mp-1296,ErB6,-0.419698139761905
mp-862962,CaLaZn2,-0.315703181249999
mp-39160,CaTiFe(PO4)3,-2.896108553736772
mp-28147,Er4Ni13C4,-0.35590693
mp-34978,Al2FeO4,-2.837116017857142
mp-155,Gd,0.0
mp-567492,Ce2WC2,-0.34852409700000003
mp-755777,Ce2S2O,-2.837833274999997
mp-11431,CaGa3Ni2,-0.48185687208333206
mp-550433,BeZnO2,-2.3983149150000003
mp-17689,Ba4Ir3O10,-2.145836499117656
mp-559274,Ba21Ge2O5,-1.049112582321429
mp-3748,AlCuO2,-2.417254424999987
mp-504924,Cs2Te2O5,-1.743757562932632
mp-761035,AgRuO4,-1.012188526944443
mp-849805,B12H21C4S2I,-0.23881773734374903
mp-1280,ErTe,-1.4052320416666642
mp-17911,Ba2ZnO3,-2.534313652916667
mp-849086,CuS2,-0.180291191875001
mp-29817,GaP2I9,-0.517897441294643
mp-580999,Ga2NiCl8,-1.161966740454545
mp-569760,Dy5Pb3,-0.528957778541662
mp-755056,CaPbI4,-1.357506626666665
mp-1788,As2O5,-1.557510087142856
mp-754338,Ag2O,-0.296431336944442
mp-30435,BaZn2,-0.19734314333333203
mp-734194,BeH8(IO5)2,-1.2931664733333341
mp-849798,AgH36S8Br2(N3O4)3,-0.837999660539215
mp-866003,ErI3,-1.627420114999998
mp-7896,Cs2O2,-1.224223352327586
mp-7048,Al2O3,-3.409391490000001
mp-6446,Ba3La2(BO3)4,-3.312299555079365
mp-29163,Ag2TeS3,-0.078949780572917
mp-19910,Ce2MgNi2,-0.306411762999997
mp-557730,Dy(PO3)3,-3.010316484853466
mp-998414,CuAgF3,-1.529609442
mp-15095,Ca3Si2SnO9,-3.198871262
mp-16521,Al3Os2,-0.595852814000002
mp-12954,CuBS2,-0.592209918541666
mp-21779,CaCuGe,-0.510463177777778
mp-8837,Ba3Er2Cu2PtO10,-2.519987186666666
mp-27393,AlPd5I2,-0.524211835
mp-667372,Ba8Zr3(SbO6)4,-2.990142667179486
mp-556574,Ba2Ca3Tl2(CuO3)4,-1.958294221594204
mp-984551,AcTlHg2,-0.453474278124999
mp-979986,BaCaYb2,0.36463231624999504
mp-866199,AcAg,-0.27115698125000104
mp-13687,Cs2KAgF6,-2.3958961098227
mp-20212,BaPr2CuO5,-2.9366641414814803
mp-10489,Cs2Ti(CuSe2)2,-1.168822045779853
mp-772665,BeCrO4,-1.981787985833333
mp-619575,ClF3,-0.6182932559375001
mp-570828,AlHg2SbCl4,-1.074121185312503
mp-768611,Ba3(YI6)2,-1.797670864999999
mp-5757,CeB2Rh3,-0.765778537499999
mp-683997,Ce3NbS3O4,-2.969408060227271
mp-610687,CeSnRu,-0.627678915833329
mp-37199,Ce(NdS2)2,-2.327747947678576
mp-540750,CsNb(PO4)2,-2.833011501370073
mp-5707,CsAsF4,-2.718765889525862
mp-567554,Ce2(Al5Ru)3,-0.5274837653749991
mp-541281,BaNdGaO4,-3.0773933725
mp-31480,Ca3(GaPd)2,-0.7414815385714281
mp-5166,Ca(AsPd)2,-0.7979935890000001
mp-422,BeS,-1.307732301249999
mp-554740,CdGe(BiO3)2,-1.78043812175
mp-778387,Ba5Y3F19,-4.215059607962963
mp-7041,CaHgO2,-2.093016145625001
mp-29607,Ag(TeMo)6,-0.26484184576923103
mp-18445,Ba2MnS3,-1.86325135340517
mp-31414,DySnAu,-0.8139786638888921
mp-568628,CsHg5Cl11,-1.173408340715015
mp-7913,BeSiN2,-1.400415780625
mp-866220,CaNdZn2,-0.30792768687500005
mp-756318,Al2CoCl8,-1.418629774090909
mp-4659,Cd(PO3)2,-2.4358821139484
mp-8759,Cs2ZrO3,-2.729279389051728
mp-756190,Cd(GaO2)2,-1.9615184899999991
mp-561017,Cs8Tl8O,-0.306712160524008
mp-3494,CeGa3Pd2,-0.726272432083333
mp-9084,CsGdS2,-2.082173956406247
mp-19042,Ca3Mn2O7,-2.647336472571837
mp-754852,BaSrI4,-1.984099029999999
mp-754630,BaSrI4,-1.9347867125000002
mp-5263,Ca4P2O9,-3.326063225952381
mp-2139,BaGe2,-0.5302564979166671
mp-677234,Ce8Gd2O19,-3.893452236034481
mp-4004,Ag5SbS4,-0.16497965362500203
mp-558118,BeF2,-3.5502524672222213
mp-30596,Cu11Sb3,0.041191995357144004
mp-559637,Dy(IO3)3,-1.489033097243589
mp-569012,Cs(AsRh)2,-0.609050766931034
mp-2773,BeCo,-0.29332581750000003
mp-8606,BaSbPt,-0.940368766666667
mp-631567,AgAsRu2,0.49340496645833504
mp-31408,Al4(B2O5)3,-3.0834730528
mp-10967,CdCu2GeSe4,-0.570855355546874
mp-621924,BaCdGaF7,-3.20683579925
mp-643586,CsHS2(O3F)2,-2.011612035908764
mp-6368,CsSO2F,-2.183438854431034
mp-570590,CdBiSe2Br,-0.841849463937499
mp-30483,CaZn,-0.24749411749999903
mp-20549,CaPb3,-0.290333107499997
mp-12863,Ba(AlSi)2,-0.263387342999998
mp-35200,AlO3,-1.58718572
mp-556798,AgHg2PO4,-1.5083162942261912
mp-3284,CeSi2Pt,-0.9619997612499991
mp-24570,Be3As2(H2O5)2,-2.008922607894737
mp-8372,CaSi2,-0.40738314000000003
mp-707218,Ba3AlHO4,-2.760497843194445
mp-18196,Ba(TmTe2)2,-1.755499247738097
mp-17833,Ba3GeO,-1.439800085999998
mp-567334,Ag(BCl)6,-0.736950766538461
mp-5588,BaSiF6,-3.839245049999999
mp-553303,CsCu3O2,-0.9694350532758621
mp-752693,Ba3(ClO)2,-2.8518630203571433
mp-20263,CaIn,-0.5627682299999991
mp-989642,Cs2NaAlH6,-0.314065184818965
mp-16870,Ba2CdSe3,-1.801110132005208
mp-6345,Ba3TbRu2O9,-2.626808572111111
mp-559200,Cd(InS2)2,-0.7876428866071431
mp-27926,AsClF8,-1.596720471
mp-1018673,CoPPd,-0.5929216915476161
mp-28150,BaNb2O6,-3.216098964999999
mp-14785,Ba(Cu2P)4,-0.285302099120877
mp-2247,AgN3,0.624941838333334
mp-581955,CsSi2SbO7,-2.730482914211076
mp-721328,CaAsH3O5,-1.944815811249999
mp-18513,Ba2MnSe3,-1.772629814160382
mp-19201,CaMnO3,-2.500438064086206
mp-570689,CaInPt,-0.9439857433333331
mp-557047,Cs2NaCrF6,-3.096754161568966
mp-626467,Al(HO)3,-1.99147785625
mp-5778,AlVFe2,-0.42876261999999904
mp-24103,CuH12Br4(NO)2,-0.8307283045238091
mp-1825,Cu2Sb,0.034371576666664
mp-37520,Ca(PrTe2)2,-1.7539265619047582
mp-745107,Ca2MnAl2Si3HO13,-3.1185331772355
mp-866283,CaHoRh2,-0.627668618749997
mp-23015,Cs3Mo2Br9,-1.480287065283252
mp-6643,BaDy2ZnO5,-3.2605967625925922
mp-24389,CaPH5O6,-2.082580629684065
mp-24384,CaH8(ClO2)2,-1.581469256666666
mp-10554,Ca3TlN,-0.7596014077500001
mp-22288,BaCe2CoS5,-1.9588726541666652
mp-14769,Ba2Zn3(AsO)2,-1.413042618333334
mp-756666,BaCaI4,-1.906189683333333
mp-561008,Ca(PO3)2,-2.960611952281746
mp-378,ErSi,-0.884979544166668
mp-777775,Ag(H7O4)2,-1.137662682137681
mp-772861,BaSr2I6,-1.958513262222222
mp-989616,CaWN3,-0.8058684772500011
mp-766359,BaCaI4,-1.891366191875
mp-756745,BaLaI5,-1.8825080592857142
mp-29036,Ba(YS2)2,-2.4151363792857152
mp-616601,Ba2InRuO6,-2.2830571143333342
mp-28823,Ba4P3,-1.003928899668367
mp-582681,CuAu,-0.039033480499999
mp-684710,Cu9S5,-0.17755268716517802
mp-1546,DyMg3,-0.048998716666664006
mp-22524,CeP2O7,-3.109137874928571
mp-684580,AgI,-0.46390137333333203
mp-17886,K2Al2Sb3,-0.491017206071429
mp-5662,Ce2Fe17N3,-0.27104006113636203
mp-12146,CaB2F8,-3.413795922272727
mp-557655,GdTlS2,-1.73337654208332
mp-5933,BaTiO3,-3.4896585356666643
mp-755624,Ca2PrO4,-3.121676431666666
mp-1013551,Ba3P2,-0.539046373857142
mp-753912,CaTb2O4,-3.703958113333332
mp-2757,CdAu,-0.199336070000001
mp-780738,H4WNCl6,-1.062688287083333
mp-600663,CeGaNi,-0.562874533333332
mp-568742,HgI2,-0.563892003958332
mp-558164,CaHf4O9,-3.9387402284821422
mp-13982,CdCu2GeS4,-0.6501249718749991
mp-9252,HgS,-0.37165940500000205
mp-567841,Be3P2,-0.23136165360714203
mp-8568,Ca4PtO6,-2.711582475909091
mp-667336,Cs4Zr3Te16,-1.033387468055971
mp-758180,CsSi3HO7,-2.905829124033764
mp-5990,CsLi(B3O5)2,-2.8407867293326943
mp-15502,Ba4TiP4,-1.0696733649338621
mp-27394,CsSnCl3,-1.577583273000002
mp-622018,BAs5(Pb3O10)2,-1.819980404895833
mp-557914,DyTaO4,-3.729081180666656
mp-16571,Ca7Ge6,-0.7280555990384631
mp-778833,CoOF,-1.576908491666666
mp-20883,Fe3Sn,0.034460963750000004
mp-20021,DySn2,-0.5850517338888841
mp-14193,K2ThF6,-3.921642413833328
mp-35795,BiPbF5,-2.534223714285713
mp-775219,Cr3P6WO24,-2.422533893466387
mp-23438,BaBiO3,-2.208540844
mp-570629,Ce4Ru3,-0.371323679285712
mp-4472,BMo2C,-0.29384555093749704
mp-2092,CePd3,-0.8212443124999991
mp-773170,Cr3SbO8,-1.9809094462499992
mp-18973,CoSe2O5,-1.272770595898438
mp-37036,Bi2O3,-1.531513580500007
mp-20992,Ce3InC,-0.48984475000000005
mp-961650,AlVNi,0.356573097456141
mp-17633,Er2SiSeO4,-3.403370888730469
mp-771306,Dy2P4O13,-3.135999185889725
mp-21443,Ce2Pd2Pb,-0.737181032999995
mp-21019,Cr2FeS4,-0.8455316614285701
mp-12326,CaZn(GeO3)2,-2.3650328105
mp-20620,Ba2NbInO6,-2.959584960666666
mp-504701,CsTiF4,-3.4819222892480792
mp-22904,CaCl2,-2.645431978333333
mp-2627,DyAs,-1.8105794087500011
mp-2295,CaNi2,-0.18914730833333201
mp-567623,Er2Fe14C,-0.08029793941176201
mp-3910,Ce(Al10Cr)2,-0.170987423478261
mp-4227,BaVS3,-1.6553276125
mp-720971,Ca12Al11Si3Cl5O32,-3.403650273492063
mp-28452,Fe3W3N,-0.13769147857142802
mp-631542,BaZrNi,0.6748585433333331
mp-7788,Er2Co12P7,-0.7946565115476181
mp-4363,Ca3Sn13Rh4,-0.503033620750001
mp-772760,Dy2Zr2O7,-3.862349958484847
mp-505626,Cr12P7,-0.37273138820175306
mp-997106,AgRhO2,-0.873900367916665
mp-774309,Li2MnV(P2O7)2,-2.651940541280413
mp-705468,Li3Mn3(PO4)4,-2.510715676437097
mp-849422,Li4Cr3Co3(WO8)2,-2.074739315119046
mp-15603,HoB2C,-0.5366576927083321
mp-8308,Ca3Ni7B2,-0.33624928486111
mp-569304,C,0.009060210000001
mp-757885,LiSnPO4,-2.393012122568027
mp-772004,Li3Co3TeO8,-1.69675978911111
mp-13288,Ba3LiN,-0.307244143666667
mp-973850,HoGa3,-0.543934578375001
mp-570132,Mg8B5IN10,-1.117978656076389
mp-774346,Li3V2(PO4)3,-2.683326558196428
mp-581696,CsLu2Cu3Se5,-1.299182470427932
mp-18129,La2ZnGa2S6O,-1.8481179275000001
mp-26327,Li6Bi3P8O29,-2.448919025046584
mp-30376,ErInAu2,-0.781622655833331
mp-644707,La5MnOs3O16,-2.790260330917241
mp-12101,Lu(SiOs)2,-0.699688691333329
mp-547792,KSbO3,-2.049127173449997
mp-29718,AgW3Br7,-0.817787528106059
mp-766422,Li3BiS4,-1.016831059374999
mp-22270,CoP,-0.500380255238095
mp-18567,CaZn11,-0.16496461416666702
mp-559346,K3Nb3Si2O13,-2.987607624607143
mp-778848,In3NO3,-1.40579492642857
mp-12746,Ce2Ga10Pd,-0.468068704230769
mp-20775,CeDyS3,-2.4042347131875
mp-774323,Li4MnV3(P2O7)4,-2.6918956963274363
mp-560665,LaPb6BrO7,-1.8782037909999991
mp-3530,Au(OF3)2,-0.947851747777778
mp-558753,BiB2O4F,-2.618158252499999
mp-1952,Ba7Al13,-0.217451488499998
mp-36033,PrOF,-4.072142553888889
mp-714932,V5O9,-2.487340240000001
mp-679406,K2HS2NO6,-1.730583909645833
mp-772852,Na3Zn4P4H4NO16,-2.182652426334667
mp-779593,Na5LaO4,-2.008097409689655
mp-11359,Ga2Cu,-0.080186346666666
mp-1009822,SnC,1.295525238749999
mp-976422,Hf3C,0.7622839949999971
mp-865924,LiZrAu2,-0.589742580416668
mp-753557,Li2CuSbO5,-1.7567463412962971
mp-7889,Sr2YReO6,-2.989033672249999
mp-972479,Sm3Sc,0.058291266249998
mp-721702,Zn2AsHO5,-1.7068521448611111
mp-30541,Nb(NiP4)4,-0.31398231282312705
mp-21202,Sm3In,-0.371565270000001
mp-778819,LiMnF3,-2.970653517252874
mp-637427,PrIn2Pd,-0.627922051499998
mp-24500,ZnH12SeO10,-1.29753928780599
mp-769470,Li11Fe(WO4)7,-2.251534366312056
mp-568208,IrCl3,-0.624767009999999
mp-20395,VAsRh,-0.5563890249999991
mp-705002,Li3V4P9O32,-2.618811850349702
mp-705416,Fe3O4,-1.499408304821428
mp-569426,SrZn2,-0.22804347333333402
mp-11644,Li2Ca,-0.015074192777777001
mp-1128,SiIr,-0.7411240462499961
mp-570702,Sm2Cu4Sn5,-0.24425329045454502
mp-864877,Hf2CoRe,-0.40352034562499706
mp-975857,K3Mg,0.152374936499999
mp-4693,RbAlF4,-3.636890354999999
mp-676145,Lu(HO)3,-2.206839892202381