material_id,formula,formation_energy
mp-743742,Fe6H12Pb(SO7)4,-1.627071034607842
mp-778584,LiMn2(CoO4)2,-1.600199540707338
mp-29956,Hg3(SI)2,-0.467214151785717
mp-8351,NaAlSiO4,-3.135628220911329
mp-558050,Rb2NaMnF6,-2.985309472431034
mp-5916,Yb(SiNi)2,-0.870277547
mp-677014,K2ErTi(PO4)3,-3.096632968908521
mp-559817,Na3(CuO2)2,-1.377017228793102
mp-756770,UNb6O16,-3.054632434347826
mp-554726,KNaCu3S3O13,-1.7307985233871102
mp-8136,ThSO,-3.4304611374999983
mp-861964,LiLu2Ir,-0.672485679166666
mp-569568,Ta3AlC2,-0.634631386166664
mp-770496,Mg2Mn3O7,-2.304856968232757
mp-762293,LiCoSiO4,-2.289783934047619
mp-776532,HfO2,-3.982831039166664
mp-17401,Rb3Sn4Au,-0.33685004843750005
mp-770888,Li4Nb5V3O16,-2.651487789761905
mp-22212,NaSbO3,-1.9649369122758622
mp-8624,K2Sn2O3,-1.742462365642854
mp-13936,Sr2GdReO6,-2.9614581922500003
mp-636953,V6Si7Ni16,-0.45650533379310804
mp-30676,Zr3Ti2Ga3,-0.5124433767708341
mp-5032,La3Ru3O11,-2.54792911617647
mp-27628,Te3Cl2,-0.33295714550000005
mp-695799,KP(HO2)2,-2.139977348361607
mp-768524,Ge2As2O7,-1.825448261818181
mp-23888,MgTe(H4O3)3,-1.469343559637681
mp-567542,PbI2,-0.921080175833331
mp-772265,MnPO4,-2.411414869178982
mp-777514,Y2O3,-3.8636456055
mp-29368,Th2Ta2O9,-3.7799161363205123
mp-17615,Ta5Ge3,-0.38599991395832906
mp-8375,Th(SiTc)2,-0.697577453999997
mp-4899,GaAgTe2,-0.34213799249999904
mp-781670,Li5Mn6(BO3)6,-2.47358697512151
mp-11507,Ni4Mo,-0.034752561999999
mp-24289,HPd,-0.056277304374999004
mp-865114,NaDyTl2,-0.318894631250003
mp-10254,Sr2IrO4,-2.331170354285714
mp-557686,ZrVF6,-3.646671824375
mp-28892,PH4N3,-0.45626424250744
mp-7792,YScS3,-2.275333159687498
mp-460,PrZn,-0.29901421583333404
mp-7337,NdAl3(BO3)4,-3.234371249708333
mp-7192,Sc2Sb,-0.8804195516666671
mp-21359,SbRh2,-0.37505209166666403
mp-756544,LiLaO2,-3.181068658333333
mp-27466,LiTe3,-0.697007518749999
mp-998713,TlInCl3,-1.374226712000001
mp-559738,SbSNCl5,-0.421892825711546
mp-504540,Na11U5O16,-2.677738941411636
mp-28603,NaLiSe,-1.371980806076387
mp-999053,Ti2GaNi,-0.265005343541666
mp-753425,LiCuCO3,-1.680298696388889
mp-584134,LiBiP2O7,-2.512037952510822
mp-29748,TePdI,-0.5872695705555581
mp-21577,Na3InP2,-0.529857329950396
mp-768503,Lu(PO3)3,-3.032819989084248
mp-673024,LiSn4(PO4)3,-2.327332105863095
mp-29362,GaCuCl4,-1.025192511666667
mp-29594,La5B4N9,-1.6056009992360911
mp-999205,ScC,-0.004059435857142001
mp-775445,Fe5(O4F)2,-1.572016601333334
mp-7120,Sm(AlSi)2,-0.43423771199999905
mp-26897,LiSn(PO3)3,-2.495593943018707
mp-10086,YSF,-3.332084884270834
mp-16877,Re2W3C,0.016226738750001
mp-961685,NaCaAs,-1.0461259208333331
mp-27792,K2S5O16,-1.8680409705217391
mp-3050,Y3Al5O12,-3.675374461249997
mp-769633,NaFePCO7,-2.066906303729287
mp-1374,Zr5Re24,-0.21693030379309902
mp-4117,Li2Si2O5,-3.015912327407407
mp-11183,Pr(BO2)3,-3.158382339916666
mp-590,NiAs,-0.291481691249998
mp-694964,Na4MnAl3Si3O16,-2.766303603275862
mp-505139,TiH2SO6,-2.159922030583332
mp-768604,SrLaCl5,-2.6601288514285653
mp-29404,La2CCl,-1.183569436250002
mp-571341,InHg6As4Cl7,-0.7358644289814831
mp-766463,Na3GaB4O9,-2.6382217178414473
mp-556017,Th2P2O9,-3.557437455329672
mp-30543,RbAg7S4,-0.37682686409722105
mp-972692,SnPb,0.143131734999997
mp-554602,Rb2PdN2(ClO2)2,-1.286722299545454
mp-867179,SrCdHg2,-0.360776323750005
mp-7961,Sr3SnO,-1.642535061999999
mp-30747,Zn11Ir2,-0.22584581384615302
mp-4073,Sm(CoB)2,-0.508806614666669
mp-3901,NdNbO4,-3.517525249583331
mp-2123,Nb3Au2,-0.185682601999997
mp-556975,Nd3CuSiS7,-1.842290476666665
mp-13753,SmP5O14,-2.823380161535714
mp-12736,TbB2Rh2C,-0.593831916666668
mp-3991,UMoC2,-0.38791059437500003
mp-14099,ZnAgF3,-1.932383004000004
mp-756550,TmAsO4,-2.778257083333334
mp-978525,Si3Mo,0.3236961775
mp-676262,TaTlO3,-2.684087633883337
mp-559113,ScH24C3S3(N3O5)3,-1.133525364227274
mp-775018,TiFe(PO4)2,-2.750375674801587
mp-572284,SbXeOF9,-1.554682270416666
mp-978513,SmErMg2,-0.06951272124999801
mp-581868,NaY(IO3)4,-1.4436729681321832
mp-755491,Sr2Ti6N2O11,-3.185039489285713
mp-765739,VOF,-2.638268914583334
mp-998434,RbTlF3,-2.4365993926666683
mp-28566,NaTiSe4,-1.172793048181273
mp-971705,Tm2MgTl,-0.179662072083338
mp-17307,K2Hg3(GeSe4)2,-0.7528143367166671
mp-769593,Li4VCr3O8,-2.416097376145833
mp-7068,Sr3(AlSi)2,-0.46661771285714304
mp-1016109,ZrZn16,-0.08632099147058901
mp-26794,Li3Cu(PO4)2,-2.34340052887755
mp-553991,Ti(GaO2)4,-2.55084869948718
mp-1638,SrAl2,-0.271503493333333
mp-19341,Tl2WO4,-1.698710534523813
mp-770472,HoLuO3,-3.993262638833333
mp-674341,Sc3TaO7,-3.611415811575756
mp-510633,Pb2CBr2O3,-1.610757234374999
mp-14901,NaZnAsO4,-1.9314949100779972
mp-22179,YTiSi,-0.737028245555556
mp-1340,Ga2Se3,-0.700867464437499
mp-865527,YAl3,-0.47452011250000004
mp-18979,TbFe3(BO3)4,-2.579783632999999
mp-20789,SmInRh,-0.71960490611111
mp-3219,EuPO4,-3.109623819107143
mp-761481,Li2FePO5,-2.399479345423279
mp-9323,Tb2S3,-2.3906826406875012
mp-686836,MgTiNb2(PbO3)4,-2.516721744416666
mp-2583,TiRh,-0.7413721266666661
mp-560356,Sm3Si2S8I,-1.7399511114285722
mp-2309,Tm2S3,-2.358875747187499
mp-7239,PrMgGa,-0.46753923805555503
mp-976923,NaReO3,-2.072553317775862
mp-15707,TbB2C,-0.616146412499999
mp-560506,NaTiP2O7,-2.837470130818031
mp-555785,Nd2Ti2O7,-3.690813383333332
mp-12896,NdAl4Co,-0.5162427445833321
mp-774356,Li3Mn2(SiO4)2,-2.589079783724137
mp-542503,La9(SbO)5,-2.466183140789478
mp-30779,SmMg3,-0.08270753749999801
mp-571404,Hg3(SeI)2,-0.49992624816964504
mp-12175,Y5Pt4,-1.239568638333328
mp-766416,K2UH6C2SO13,-1.96672909198
mp-777860,Li2FeF6,-2.626325133703703
mp-7137,LiTbO2,-3.270821998749999
mp-549127,HoBi2ClO4,-2.470130923125
mp-12161,K2SrCu(NO2)6,-1.171304879295454
mp-781077,Fe5O7F3,-1.727505138333334
mp-12951,ZrGaAu,-0.690730113333335
mp-22326,Mg4As6Rh7,-0.629525107941174
mp-757094,La2HfO5,-3.914193625625001
mp-554643,K2SbSO4F3,-2.4544791679090903
mp-12607,PrPt,-1.102010378333334
mp-1163,UBe13,-0.058345204285714006
mp-753515,Sb3O4F,-1.8580966656250002
mp-8751,RbLiS,-1.344921642777777
mp-4583,NbCo2Sn,-0.10970941625000001
mp-631527,In2GeB,0.917846628958333
mp-675130,Tb6PbSe10,-1.953726242555145
mp-13536,TbZnNi,-0.454986832222221
mp-2874,In2Si2O7,-2.6838661707575753
mp-5221,HfAlCo2,-0.5731287975
mp-6304,Sr2GaSbO6,-2.6297341187499983
mp-775821,Ti2N2O,-2.128963146833335
mp-972633,SmErRu2,-0.268383636249999
mp-559228,Rb2HfS4,-1.576594602499998
mp-27483,Li5TlO4,-1.864534572124999
mp-775184,Sc2(PO4)3,-2.829295865966386
mp-865303,Tm2CoOs,-0.211231460000002
mp-764789,LiMn2OF3,-2.654302661670771
mp-651301,NaIn(MoO4)2,-2.038271371295498
mp-16866,KNpN3O11,-1.6221119063125
mp-549720,NbI2O,-1.621874311250001
mp-626411,In(HO)3,-1.547849200059523
mp-754516,LiNiP,-0.659992634000447
mp-773129,LiSn2(PO4)3,-2.509342428042327
mp-29645,Nb2Cr4Si5,-0.39271961000000005
mp-550111,SmBi2BrO4,-2.383572875
mp-8251,VP4,-0.385611564380951
mp-754368,NaSbO2,-1.851742965344827
mp-11594,PrB2Ir3,-0.6186925749999971
mp-641651,U2(Al3Co)3,-0.34509313869047403
mp-13221,NdMg2Cu9,-0.161846879374998
mp-752422,IClO,-0.593077595
mp-975789,PrTmMg2,-0.06711258541666701
mp-555214,ZnS,-0.948980154675481
mp-866132,Na2TlSb,-0.415826112499999
mp-977997,ZnMo3,0.17724069041666302
mp-676694,LiNbO3,-2.891502366000001
mp-556757,K2NaNiF6,-2.611750915587931
mp-32502,LiV(PO3)4,-2.638722917328042
mp-650228,KIn(MoO4)2,-2.060741107409723
mp-974729,Nd(Al2Cu)4,-0.345021670576922
mp-672274,YbIn4Rh,-0.45370370666666304
mp-568318,KTaTe3,-0.8192553546166661
mp-772319,Li4Co3Ni5O16,-1.297888950119047
mp-541000,K3As11,-0.25697280155357
mp-769855,SrCrO3,-2.5740807395000003
mp-973276,HoLuCd2,-0.28329384291666504
mp-568540,Ag5Hg4P8Cl5,-0.3892654220671
mp-571370,Fe2NiP,-0.382958699285713
mp-10883,AlCrCo2,-0.22062925874999803
mp-28503,Al10Si2O19,-3.337935889032257
mp-655613,Cs2Tb6Te7N2,-1.680559857998647
mp-27776,Cd2AsCl2,-0.923716266499999
mp-669304,Cs3Tb2Br9,-2.24947857230706
mp-23567,CuHgSCl,-0.632859902812501
mp-11276,BeRh,-0.607815922499999
mp-2998,BaTiO3,-3.477498397666666
mp-22705,BaPrO3,-2.974917451833333
mp-31744,Cr3(PO4)4,-2.306514077329193
mp-673635,Fe3N,-0.15478422531249802
mp-672254,CaPdPb,-0.622544973333335
mp-862694,Al2IrRh,-1.130865957499999
mp-556214,CaB4O7,-3.025380696492995
mp-15922,Gd2ReO5,-3.196348361562499
mp-542570,AsSe,-0.11949234390624801
mp-30572,Hf2Ga,-0.46835036833333704
mp-554549,CaGeO3,-2.735575463624999
mp-13791,BaNaNd(SiO3)3,-3.339448230758621
mp-1001602,B12W,0.208346707756412
mp-4259,Ca(CoGe)2,-0.41355985
mp-581114,Cs2YSi4O10F,-3.30559459253113
mp-561942,Cs3TaO8,-1.747082465524905
mp-31149,Ca3BiN,-1.204245116750002
mp-510593,Dy5CoSb2,-0.7438248904166641
mp-554105,CdAg2GeS4,-0.583503417916664
mp-559151,BaSrTa2O7,-3.487807100424242
mp-768735,Ba2SrI6,-1.9820126402777771
mp-641367,Cr3AuO8,-1.571547349999999
mp-16922,Ba2Sb3,-0.962356391249998
mp-697408,H10C2N2O5,-1.037641158552632
mp-6622,BaNd2Ti3O10,-3.6494072715625
mp-20350,DyCoC,-0.302077250555553
mp-24308,AlSiH9C3Cl2O,-0.808122768308824
mp-6988,FeN,-0.3137454275
mp-754329,CdSnO3,-1.8377478320000011
mp-14092,AlAgTe2,-0.43926148875000204
mp-15614,Cu(RhSe2)2,-0.48147113589285606
mp-984705,ErRu3,0.12980286000000102
mp-998314,CsInI3,-1.15781627026437
mp-771903,Fe5Cu(PO4)6,-2.201516816329364
mp-20525,CuSO4,-1.509107240416665
mp-766570,Ce3Th4O14,-4.172632269999997
mp-20722,CeFeGe3,-0.504454995000001
mp-754655,Eu2SeO2,-2.794765508468752
mp-759870,BiOF,-2.172182767291668
mp-676711,CIF5,-1.519797403571429
mp-18960,ErVO4,-3.212660742500001
mp-542522,Bi14PdBr16,-0.8021178096774201
mp-1798,CeMg3,-0.05458833874999901
mp-644295,CaZrGeO5,-3.138478141875
mp-28967,Ba(PdS2)2,-1.124628872142858
mp-504729,Cs2PdF6,-2.32513731888889
mp-759686,BeAlSiHO5,-2.949310692638889
mp-3128,ErCoSi2,-0.737320739999999
mp-769009,Ba2YCl7,-2.7845612435000002
mp-12623,BaPdF4,-2.851794986666661
mp-21014,DySnPd2,-0.8744328691666721
mp-1018088,C,1.306076984999999
mp-542863,Ca7NbSi4O17F,-3.479967510333332
mp-5227,Dy(NiP)2,-1.012031162190474
mp-558768,Ag2TeO4,-0.9644783249999971
mp-29570,Ca2Si3Ag,-0.513929418333333
mp-643941,CaAl2Si(HO2)4,-2.6231631634375
mp-23065,CsCu2Cl3,-1.097189427916667
mp-20231,CeInPd2,-0.7192975379166661
mp-6428,Ba2YRuO6,-2.831114415
mp-27344,Be(BH4)2,-0.242476565189394
mp-27221,Ca2Hf7O16,-3.938458758399999
mp-554479,Ba3BPO7,-3.210525371984126
mp-672227,CaZn13,-0.14537516892857102
mp-560443,AgHg2NO5,-0.680979918240742
mp-864961,Be2PdPt,-0.6840280950000001
mp-29259,Bi2PdO4,-1.408942188214287
mp-7251,Ba2YNbO6,-3.444694518
mp-989399,Ca6Al2NF,-0.964665896999999
mp-773140,Co3NiO8,-0.9272572229166661
mp-768537,Cs3TlO3,-1.341620850328406
mp-569941,Ce3Sb3Au2,-0.863673129999997
mp-730691,CaU2Si2H12O17,-2.314318699999999
mp-551135,BaCuB2O5,-2.5904780203703712
mp-861943,BPt3,-0.040951215624993
mp-561045,Ba8Ce3(SbO6)4,-2.992093305641025
mp-504539,CaLu2O4,-3.85212620797619
mp-753923,Cs3HoO3,-2.195949674137932
mp-558557,BaLa4Cu5O12,-2.443297786363636
mp-567975,AlPNCl5,-1.4548394980803572
mp-985281,CsIr,1.557296019999995
mp-685126,Cu39S20,-0.058103504088980004
mp-28587,BaH8O5,-1.5686355787500101
mp-625832,Ba(H2O3)2,-1.034762654545454
mp-867297,AcIn3,-0.5507089056250011
mp-669358,CdI2,-0.8249628363636361
mp-769253,Dy2SeO2,-3.446928703135414
mp-567589,DyAl3,-0.45651819124999804
mp-18698,CsPr(CO3)2,-2.536249298382184
mp-569853,CsNb4Br11,-1.394795754353447
mp-778274,Dy5Ti5O17,-3.701482152962962
mp-504805,Cs(Zr3I7)2,-1.169134867602627
mp-569877,Dy2InGe2,-0.8034714730000011
mp-1018708,GdTlZn,-0.383456843333334
mp-672238,CeCuSb2,-0.749206370000004
mp-9820,CsAsF6,-2.7662161571443953
mp-30278,Ce3Ga4Cl,-1.057525809687501
mp-21845,FePd3,-0.108251334999998
mp-571150,Cs2Zr7CI18,-1.310087956582515
mp-570192,CsZr6MnI14,-1.212039032844827
mp-558392,Bi2Ir2O7,-1.46893560636364
mp-19264,Co3(PO4)2,-2.156004351868131
mp-30902,Er2Ru2O7,-2.6067901540909073
mp-1033,BeNi,-0.468281252499999
mp-581877,Cs2Zr(Si2O5)3,-3.249186521568485
mp-568727,ErRh3C,-0.527191843000001
mp-568670,Cs2NaTbCl6,-2.496447220735632
mp-637609,Ce12InPt7,-0.79218860833333
mp-20456,Co3Se4,-0.349812147321427
mp-4219,CeGeAu,-0.7452239566666651
mp-6875,BaNa2Al4(SiO4)4,-3.297985820102171
mp-569841,Ba19Li44,0.006189224735449
mp-675896,Ca2NdF7,-4.153204206416666
mp-28927,Ba(NiP2)2,-0.6536033355102
mp-673244,Bi2O3,-1.530623763000001
mp-33500,Cr2HO4,-1.9267929630357141
mp-4009,BaPdS2,-1.471095382499999
mp-558303,Ce3CuGeS7,-1.716054755624997
mp-21594,Ca9Zn4Sb9,-0.8896565311363581
mp-568746,Bi2Pd,-0.198452750000001
mp-15492,DyTa7O19,-3.417534262333331
mp-29241,Ca3SnO,-1.7673669900000002
mp-3463,CaTi2O4,-3.34637865595238
mp-684743,GaGe5H6C4NO12,-1.10548590051724
mp-644097,BaAlH5,-0.450698718392857
mp-557417,As2Cl3OF5,-1.891481795454545
mp-12902,ErAgTe2,-1.108093612499997
mp-158,As,0.0
mp-771948,Ba3LaCl9,-2.9183677734615383
mp-556549,Bi2O3,-1.625217435500002
mp-7739,Ba2ZnF6,-3.622230392222222
mp-631558,Hf2BiB,0.9424658864583291
mp-1013719,Ba3BiSb,-0.530236362
mp-6709,Ca3La3(BO3)5,-3.425501466570513
mp-588,GaF3,-2.85906879875
mp-629690,Bi2(PbS2)3,-0.721297862727272
mp-16433,Ca2Ga2O5,-2.768388271666667
mp-559940,AlS2NCl6,-0.7664228741041721
mp-22895,CuI,-0.33633597749999905
mp-4826,CaCuO2,-2.126880714999999
mp-767442,Fe3CuNi2(PO4)6,-2.10848392827381
mp-510752,CuO,-0.7900102062499991
mp-14116,CuRhO2,-0.9612006149999991
mp-23260,BaI2,-2.050704712499999
mp-559307,Cu3P4(SI)3,-0.39573858489010905
mp-249,HfAl,-0.45052716500000006
mp-626680,Fe(HO)2,-1.360181359499999
mp-8911,CuAgS,-0.161548739826391
mp-776167,CeAlO3,-3.617263174
mp-622558,DyFeGe2O7,-2.479939324696968
mp-3772,Cd(GaSe2)2,-0.8853534391964281
mp-772624,Al2CO,-1.422523865
mp-510278,GdTiO3,-3.617602678666666
mp-10068,Ce2MnN3,-1.520320355122126
mp-772019,Ba5La2Cl16,-2.861193770869565
mp-29398,Cs2HfI6,-1.508881836590033
mp-13922,Ba2Ge,-0.49216827499999705
mp-510315,Ce(GeIr)2,-0.785544749999996
mp-21915,Ce3Co4Sn13,-0.345100572999999
mp-571397,Cs3Tb10C4Cl21,-2.269019501595584
mp-19134,CaCrP2O7,-2.871509720616883
mp-773505,Al2CrO5,-2.876227499375
mp-754041,Gd2HfO5,-3.938316614375001
mp-1016852,BaMnO3,-2.356205420586207
mp-612918,Dy3Ge4,-0.869839505714285
mp-31492,CeGaNi,-0.6125861447222191
mp-685318,Bi15AsO25,-1.661546209634148
mp-572551,Cs2U(Br2O)2,-2.47846627881226
mp-979981,AcYbGa2,-0.5005962431250021
mp-626227,Ca(H8O5)2,-1.393901089629629
mp-1018081,CrFe3,0.050002915
mp-754199,BaSrI4,-1.964422415
mp-675879,Ag3SI,-0.251774319499998
mp-767737,Co9Cu3O16,-1.213403641071428
mp-9711,Ba2Si5N8,-1.340124068000002
mp-862882,CaPmAu2,-0.8781849018749951
mp-16831,CaTi4(PO4)6,-3.099354685176871
mp-4883,Ba(FeP)2,-0.811679707857145
mp-568005,CsYbBr3,-1.8053148135000012
mp-19989,Ce2In8Co,-0.29612407939393504
mp-766268,Bi12O16F5,-1.839678119545455
mp-574272,Ca5Pb3,-0.5045842702083311
mp-555050,BaNb2O6,-3.205801718055556
mp-562366,Cs2U3(TeO7)2,-2.870472926792555
mp-6963,Ba(SbPd)2,-0.8670059089999951
mp-10409,Ba4Nd2Cd3Se10,-1.78729141018092
mp-989584,Ca6Sn2NO,-1.306336873999998
mp-779424,Gd3TaO7,-3.802698150666667
mp-714904,FeO2,-1.1429497
mp-423,GePd2,-0.5388015261111101
mp-572634,Al2AgCl5O,-2.005386624351851
mp-973623,GeBi3,0.23017160124999902
mp-29396,Cu2PbO2,-0.9810454259999981
mp-675740,Ca(CeTe2)2,-1.686275101666666
mp-849761,GaBi25O39,-1.6452765415769242
mp-582146,CsNb4Cl11,-1.556460165468748
mp-28996,Ag4Bi2O5,-0.9037052553787881
mp-505522,Fe(NiS2)2,-0.6554052428571411
mp-631463,CuTcBi,0.6814291816666671
mp-628643,CuAsPbS3,-0.554877909166665
mp-776610,Ba6YI15,-1.899287609318181
mp-554583,DyP5O14,-2.8316344516190473
mp-759405,Bi3O2F5,-2.44773530625
mp-675219,Ba9(LaS6)2,-2.331263360434782
mp-24136,Cs(BH)6,-0.42521708903846106
mp-16534,BaSm2FeS5,-1.9613757119444442
mp-561318,Ba2AlCu2F11,-3.243204630729166
mp-555458,Ba4Fe2S4I5,-1.705332292333333
mp-1974,CeB4,-0.6676267045000011
mp-605108,Al2P3H11O13,-1.9370855738854682
mp-997159,CrAuO2,-1.622478742499999
mp-18561,Ga2AsRh5,-0.5146121890624991
mp-6492,Ba2YSbO6,-3.075945864
mp-2379,CoSi2,-0.41107844000000104
mp-1018083,CrCdTe2,-0.335086943333332
mp-5292,Ca(SiNi)2,-0.6166805160000031
mp-11,As,0.011004127499999001
mp-16718,Al6Tc,-0.286405851428568
mp-11958,CaSn2Pd,-0.666313169999996
mp-18090,Ba3TaAs3O,-1.538329979666666
mp-650841,GaBr2,-1.131814039027779
mp-21155,DyMnGe,-0.487745546532565
mp-3316,BaCeO3,-3.589194142000001
mp-984350,Dy3Sb4Au3,-0.807921742499996
mp-1008483,CdN,0.9604628524999991
mp-5440,AlPO4,-3.108476538412698
mp-4555,Ca(AsO3)2,-2.227475808333333
mp-540391,CoPO4,-2.084703074940478
mp-653930,CuAs2Pb8Cl5O9,-1.558126801599999
mp-695984,BaRe2H2O9,-2.255222034642858
mp-557564,CeNbO4,-3.471465507499997
mp-1016875,CdRhO3,-0.8457294909999991
mp-667342,Bi12PbO20,-1.5947809093939371
mp-3598,BaRuO3,-2.164239095333334
mp-760515,Ba3Sr4O7,-2.9288347089285702
mp-12054,Cr2B3,-0.31681963949999903
mp-677131,Ce9YO20,-3.8452169446666673
mp-12814,Ba3SbN,-0.9256129459999981
mp-562001,Cs11O3,-0.7818787620504931
mp-721943,CuSiH12(OF)6,-1.775194791153846
mp-757070,BaCaI4,-1.881982101666667
mp-550553,CdBiClO2,-1.597906265
mp-6203,CaCuAs2O7,-1.9442622340909081
mp-555661,Ca9In(PO4)7,-3.227572116092591
mp-505322,CsTa(CuTe2)2,-0.6819976182693961
mp-1019532,BaAl4O7,-3.4240947214583333
mp-777942,Ba14Na8CaN6,-0.37435607089774003
mp-647489,CdI2,-0.8269972663809521
mp-768827,BaSrI4,-1.911686005555556
mp-1410,DyN,-2.020705376875
mp-662599,Ag3AsSe3,-0.302367482433035
mp-6580,Ba3NdRu2O9,-2.573878621833334
mp-9309,CsTa(BO3)2,-3.013451491032184
mp-997569,AlP,-0.068993173988094
mp-560326,Ba5B3CNO9,-2.815766851710528
mp-8727,Ba4PtO6,-2.467705925000003
mp-560000,Ce2Ti2SiO9,-3.603050980476188
mp-19271,BaCrO3,-2.325464904
mp-768972,Ba3Y2Cl12,-2.797285116764705
mp-557810,BaH6F8,-2.328292768499996
mp-757785,Bi12PbO19,-1.6018767098437512
mp-552098,Bi2SeO2,-1.351369364468753
mp-769307,Ca4Ta2O9,-3.467615632811117
mp-945779,DyCuTe2,-1.054262947499999
mp-573069,Ba2CaTl2(CuO4)2,-1.866609876444444
mp-628637,Cu3BiSe2BrO8,-1.1927057003125001
mp-867241,Ac2GePd,-0.665207049999995
mp-555267,CuHgSBr,-0.5360772075000011
mp-1016823,BaGeO3,-2.463637802000001
mp-555438,Ba3AlF9,-4.08460704125
mp-722766,CaHgH16(BrO2)4,-1.298516405916667
mp-555958,Ba2Li3(PO3)7,-2.85420125090909
mp-27298,Ca11Bi10,-0.9456154535714251
mp-545603,Ba2BiSbO6,-2.444242602
mp-28229,Bi4Te3,-0.194445580000003
mp-622209,Al3Ni,-0.418775703125
mp-510370,CsAlCuF6,-3.042744035239463
mp-531175,Cd(GaO2)2,-1.995608452857142
mp-680683,CsB9O14,-2.829249780818966
mp-604008,CeAlRu,-0.602825359583332
mp-29839,Bi2SeO5,-1.58014964341797
mp-686748,Ca2Al2Si(HO4)2,-3.040449417333333
mp-763328,Co4OF11,-1.951041234374999
mp-23485,Ag2HgI4,-0.512362546547618
mp-989606,CaReN3,-0.7351132354999901
mp-867422,AcPbAu2,-0.6827262418750021
mp-680674,Cs3Bi2Br9,-1.602813389568966
mp-20461,BaPbO3,-2.108798317999999
mp-567956,GaSe2NCl6,-0.532312511191406
mp-6167,Ba2NdNbO6,-3.374360572749999
mp-8842,CaSiPd,-0.814780433333332
mp-3277,BAsO4,-2.130445326111111
mp-768317,Dy2SiO5,-3.814613528229166
mp-17784,CaTiGeO5,-3.049192665416666
mp-600449,DyCuSb2,-0.699266190416665
mp-23914,CaH12(ClO3)2,-1.4793389064285711
mp-707424,Al2H12(SeO5)3,-1.610846598657227
mp-675464,CdIn2O4,-1.76422139190476
mp-631467,BeInSi2,0.7485456745833331
mp-997011,CuBrO2,-0.39971131124999904
mp-755891,CsLiH4SO5,-1.690709815040708
mp-12729,Ba2TmRuO6,-2.876566269
mp-772583,Ca3W2O9,-2.769308367321428
mp-777233,BaYF5,-4.2757673757142864
mp-756317,Al2HgO4,-2.5423616575
mp-569603,BaCa4(CuN2)2,-0.7560053975000001
mp-631895,FePbW2,0.8515988900000011
mp-779738,Hf2N2O,-2.530059887999999
mp-2432,CaMg2,-0.11631742833333301
mp-644418,CaH2CClO3,-1.9953683565624982
mp-27768,Co(BW)3,-0.41092450392857105
mp-28675,Ba2Nb15O32,-2.99010620489796
mp-768185,Ba4Li4Ti19O44,-3.392059054319248
mp-644280,GaCuPt2,-0.47561765437499903
mp-13339,EuCuTeF,-2.062303236666667
mp-22739,BaFe2S3,-1.226052450416665
mp-579628,Gd2Tl,0.46737612166667003
mp-5014,CuAgS,-0.16145748815972402
mp-556382,EuClF,-3.461556127500001
mp-27452,Al2PdCl8,-1.371736569545455
mp-626073,Al(HO)3,-1.9838235744642851
mp-9841,Er2(SO4)3,-2.6704993997058812
mp-30369,Ca7Au3,-0.591584341225001
mp-24402,CaAlSiHO5,-3.085990001805555
mp-867201,CaInHg2,-0.42768653125000305
mp-829,AlPd,-0.8978085199999991
mp-850757,Fe3OF5,-2.360643231666666
mp-542428,Ba11Sb10,-1.100275000238092
mp-1006246,CeSm3,0.077930782500001