material_id,formula,formation_energy
mp-540093,CoPO4,-2.076118727440478
mp-24227,H8Pt(NCl3)2,-0.849392803529412
mp-11918,Ca(BeN)2,-1.248534829000001
mp-10428,Cu8SiSe6,-0.313336529604166
mp-571281,Ge3N4,-0.12912161
mp-30467,Bi4Rh,-0.121334116833334
mp-850341,Fe4O3F5,-2.148274879999999
mp-26532,Cu2P3O10,-2.053159635261904
mp-284,AlCo,-0.556456129999999
mp-672225,BaZn13,-0.174472639642858
mp-541950,GaN5O14,-0.8844602681250001
mp-680093,CdI2,-0.826773860060605
mp-15613,Cu(RhS2)2,-0.5615106980357121
mp-683910,Ag7P3S11,-0.232467901620617
mp-771963,Ba2LaCl7,-2.835338869250001
mp-23180,In5Bi3,0.0008905625000030001
mp-567929,Al13Os4,-0.53140296588235
mp-1540,HoTl,-0.428563092499992
mp-560986,AsSe2S(NF3)2,-1.381299441432291
mp-2985,HoB2Ru3,-0.47519775555555505
mp-707226,H8Se2N2O5,-0.9131828267463231
mp-554591,K2Ca2(CO3)3,-2.472780122156249
mp-504536,Cu4SnS4,-0.316626001111111
mp-556892,InBiO3,-1.7889542243333332
mp-21280,BaPbO3,-2.081831488999999
mp-744930,FeH6SO6,-1.404542327142856
mp-16503,HoAl2Ni,-0.6416250387499991
mp-556905,GdMg(BO2)5,-3.093301214019607
mp-23026,CsAuCl3,-1.123558720500003
mp-20415,GdPbAu,-0.782890306666663
mp-2303,DyZn,-0.389538524999998
mp-558056,AlPO4,-3.109775057107143
mp-862895,Er2ZnRu,-0.402019619999996
mp-780870,Fe4O7F,-1.4546234458333331
mp-1014168,CsPbBr3,-1.626885946431032
mp-774726,Cu2H26C6S7N12O5,-0.4510341425
mp-697264,CdH2SeO4,-1.343697414667968
mp-2103,CuAu3,-0.017634247500001
mp-560790,Cs2NaBiF6,-2.9280084390689662
mp-28812,Ag5BiO4,-0.6585394598333311
mp-1019514,AlPO4,-3.037141712162698
mp-30971,CuTe2Cl,-0.331452256250003
mp-867502,Eu2PtAu,-0.840425847500002
mp-754212,BaSr2I6,-1.976734231111108
mp-12912,Ba2PrRuO6,-2.736476184166666
mp-22234,Eu2C(NO)2,-1.8973366164285732
mp-569299,Be(BC)2,-0.09481202016666601
mp-3392,Ba(TlHg)2,-0.31444366383333805
mp-685810,AsN2F7,-1.53555581085
mp-20834,CeSnPt,-0.9841565333333311
mp-559695,Cs2RbBiF6,-2.9101303966810352
mp-984082,CsGdO3,-2.266336368931034
mp-780868,Fe4O7F,-1.458867126666666
mp-21706,GdAl3(PbO4)2,-2.979474422857141
mp-1018096,Ba2NF,-1.906967162499999
mp-1018676,CeSbAu,-0.7362751833333311
mp-775333,CrNi(PO4)2,-2.256860874107142
mp-607111,AlPt3,-0.7531256231249941
mp-766250,Er2H16S3O20,-1.839893373963415
mp-2612,GeTe,-0.015159295000000001
mp-3159,Al2CdSe4,-1.075488398482142
mp-4515,Ag3SbS3,-0.19799694549107003
mp-13929,Ba2SmReO6,-2.9799572767500013
mp-558521,B2Se2O7,-1.903957732092802
mp-754739,CaBe3O4,-3.091127485625
mp-11822,Ca3GeN,-0.8614104477499991
mp-998309,CsNaF3,-2.390848141206896
mp-19843,CeAlO3,-3.620338527999999
mp-23818,BaLiH3,-0.6094920114166651
mp-1006883,CoNi,0.154101905
mp-862696,CeGa3,-0.619208526249998
mp-866018,Ac2ZnGe,-0.457048125
mp-1270,Dy2S3,-2.379733143187499
mp-2455,As2Os,-0.303892785000002
mp-27630,CrCl3,-1.4250044681249991
mp-36734,CeThO4,-4.140328989999998
mp-631524,BTe2As,1.140974856354169
mp-570677,Ba5Al5Sn,-0.34695077681817904
mp-19058,Ba3CoRu2O9,-2.056674646666667
mp-782639,Dy2WO6,-3.275113600648146
mp-13453,BePd3,-0.381979747499999
mp-861738,CaMgPb,-0.423588522499996
mp-989517,Cs2SBrCl6,-1.199998675181034
mp-704630,Be3Fe4Si3TeO12,-2.342501271811593
mp-13119,CdO,-1.266895717499998
mp-569842,Ba3SiI2,-1.247045775416666
mp-570326,CsCrCl3,-1.642094597166664
mp-18182,CsNa3TiO4,-2.395163036069604
mp-8458,BaAsPt,-0.9916395283333331
mp-20571,DySiPt,-1.188239201388884
mp-567558,CsAgCl2,-1.397385576249998
mp-9113,CsBeAsO4,-2.292041238522166
mp-10992,DyCuAs2,-0.9348328450000021
mp-572741,CsUP3O11,-2.913354760848983
mp-984785,AcMg3,-0.031547879375001
mp-530074,B4C,-0.033240946095239005
mp-768263,Ba2La2O5,-3.362301514444445
mp-540922,CrTe3,-0.45052173312499805
mp-4320,CuTeO3,-1.229309976583333
mp-556015,Dy9(SbO)5,-2.369895161315787
mp-1008650,CeSe,-1.7924745161718731
mp-557892,BaLi(BS2)3,-1.198350985075756
mp-557842,AlPO4,-3.109110887607142
mp-21730,Cu4P2O9,-1.740482415785714
mp-22627,Dy2(Ga3Ru)3,-0.538509323988094
mp-779599,DyTiO3,-3.632248170999999
mp-23426,Al4Bi2O9,-2.857885393999998
mp-5365,DyCuSi,-0.7355499283333341
mp-558864,CrHgF6,-2.308362642812519
mp-776579,Ba3(YI6)2,-1.812888665882352
mp-772878,Ba2SrI6,-2.004127637777775
mp-583,CoAs,-0.213544173750001
mp-583297,Ba6Nb4S13O3,-2.118425118461537
mp-28877,Cs2SnTe4,-0.864558556925287
mp-3777,BaSiN2,-1.306235193125001
mp-555044,DyCuS2,-1.5935681832812492
mp-17063,BaLaCuTe3,-1.517794134999999
mp-756564,BaYCl5,-2.797612444285714
mp-628664,Ce2P3Au,-1.038937004404763
mp-39208,BaLaTiCrO6,-3.297388075083333
mp-707501,CdH24C4(BrN2)6,-0.566464168297872
mp-778816,Co2O3F,-1.296542186249999
mp-760470,Ce2UO6,-3.926667657777776
mp-16483,BaAl9Fe2,-0.316697639999999
mp-1001023,BeC2,0.849215976666665
mp-24522,CuH2SO5,-1.449014392777778
mp-3960,CaUO4,-3.695424939999997
mp-27146,Cs2Sb4S7,-0.659070104783652
mp-2415,DyTl3,-0.294048468750006
mp-557533,Cs2TlVF6,-2.948574419264369
mp-1006884,CoMo,0.291092250833333
mp-862690,Ac,0.0
mp-757612,Ag7(PbO3)3,-0.8129773408771921
mp-505562,CrCuO2,-1.784237707499988
mp-572442,Cs3Nd(PS4)2,-1.3693459236250871
mp-13800,Cs2NaTlF6,-2.718130387402299
mp-30130,Bi4I2O5,-1.494979854772725
mp-1008279,Co3Mo,0.18429039500000102
mp-4887,BaCeN2,-1.227158454999999
mp-3917,Cd2GeO4,-1.761721731071428
mp-6628,CsCd(NO2)3,-1.034013514968652
mp-29792,CaNb2O4,-3.024087829999995
mp-985278,AcF3,-4.467987469375
mp-560561,Cu2SeO4,-1.04517519533482
mp-680159,CsTa6PbCl18,-1.7622041180251982
mp-560067,AgHgSBr,-0.544299855416667
mp-22993,AgClO4,-0.414067270277776
mp-644203,CsCaH3,-0.49522195699999905
mp-16770,Ca2Ag7,-0.22075397611111003
mp-6607,Ca5Si2SO12,-3.2301142225
mp-17380,Ba2Ca(PdO2)3,-2.019023110416666
mp-9565,Ca(MgSb)2,-0.77549995
mp-562854,CsNb2BiO7,-2.665469837695925
mp-579071,BaEu2Mn2O7,-2.713318692988506
mp-581194,CsB5O8,-2.83408785467775
mp-568392,Ag10Te4Br3,-0.366431655490194
mp-765680,CoOF,-1.443034934583333
mp-28046,AlP2I9,-0.577801201607142
mp-8279,Ba(CdP)2,-0.5651984778571381
mp-14883,Ba4Zr3S10,-2.108120482058823
mp-752852,BaTi8O16,-3.484021402266667
mp-771141,Dy2Cu2O5,-2.606500443703702
mp-12410,Ba2TbIrO6,-2.770439125666666
mp-27200,B13H19,-0.066269877954546
mp-15683,CrAsRh,-0.24481543249999901
mp-14356,Dy3MnB7,-0.60169600382706
mp-17875,Ca6GaN5,-0.9844566178125
mp-541280,BaLaGaO4,-3.116898823928572
mp-23733,Cu3H2(CO4)2,-1.335737794166667
mp-571571,CeTe3,-1.322284103749997
mp-676143,Ce5AgSe8,-1.899057999315475
mp-669445,Cu2Bi8Pb6S19,-0.6640040223571411
mp-36641,Cd(Ga3Te5)2,-0.425350299411748
mp-505031,Cs4Cu3F10,-2.408485024705883
mp-867307,Be2RuAu,-0.257657087499998
mp-1008395,C,0.335081674999999
mp-1008922,CuN,0.8419680825000011
mp-12441,CaAl2O4,-3.395783402142856
mp-5756,Cu3PSe4,-0.202158093028272
mp-569790,BaAg2GeSe4,-0.9486019034635401
mp-985295,Ag3P,0.20542232584686101
mp-573888,Ba2ScCl7,-2.78660683875
mp-15649,As2Ir,-0.571072849166668
mp-1008985,CoN,0.8723944950000001
mp-775177,Co3Cu(PO4)4,-1.9670218016071432
mp-29101,Ce8SbPd24,-0.79335101035094
mp-770752,Ce(WO4)2,-2.561684609772726
mp-6419,CaSi2(BO4)2,-3.194144759102563
mp-2954,Dy(SiAu)2,-0.5494636823333321
mp-446,Cr3Pt,0.10911935874999901
mp-690537,Co2Bi11O20,-1.51251933030303
mp-37310,Dy10Ti6O27,-3.7646084644573623
mp-772740,Ba4Lu6O13,-3.633748113478261
mp-4864,CaMgSn,-0.542887714999998
mp-766317,Ba2CaI6,-1.9577638772222221
mp-17672,BaLi(B3O5)3,-2.944493483878204
mp-618309,Bi2AuO5,-1.248398051875002
mp-30012,BiKrF7,-1.259169145185184
mp-697592,BePH3O5,-2.129047538089286
mp-540659,Ba(BO2)2,-3.096925162619045
mp-18983,ErNiO3,-2.5175578599999993
mp-4190,CaSnO3,-2.679684276000007
mp-20154,CaTbF6,-3.784435634062499
mp-16623,DyAl7Au3,-0.509775461969698
mp-977439,Ce2ZnPb,-0.24863233749999702
mp-8037,BaThO3,-3.691689850999999
mp-555867,BaNb2Bi2O9,-2.6459056046428593
mp-754272,Cs2Ba2O3,-2.094935703472907
mp-644028,Fe2CuAs2(HO5)2,-1.460258125147058
mp-20748,Dy4In(NiGe2)2,-0.7748124348484821
mp-626496,Al(HO)3,-2.036477308928571
mp-778080,BaY3F11,-4.318214729333333
mp-21426,Dy(FeGe)2,-0.454469360333326
mp-631491,BaNbTc2,0.9548474250000001
mp-680482,AgMo6Br13,-0.995895149583333
mp-1019586,CaAl2SiO6,-3.4282218700000002
mp-631498,BaMgOs2,1.3293373637500001
mp-677550,Ca5Al12Si12(AgO24)2,-3.178303399789029
mp-754196,Ba2SrI6,-1.9816039933333331
mp-780395,Cd(BO2)2,-2.440767528095237
mp-28990,Bi2Te4O11,-1.576844434068622
mp-556635,CuBi2(SeO3)4,-1.361716019703947
mp-11124,CsLaHgSe3,-1.530181816531069
mp-232,DyRh,-0.878626445833331
mp-6613,Ba2YTaO6,-3.5658466267333333
mp-2154,CeP,-1.756998903988094
mp-766417,Ba10Cu5O17,-2.2124789429687493
mp-1006399,CeZnIn,-0.338758053888884
mp-628568,FeCu2SnS4,-0.579823659374999
mp-570680,Er(GeRh)2,-0.865524849999997
mp-540145,Fe(PO3)5,-2.283289912057823
mp-721650,CaH14I10O7,-0.9833425594531241
mp-651682,Cu3B7IO13,-2.248403250381944
mp-558288,CdAs2S2(OF3)4,-2.198542333333333
mp-17546,Cs2RuO4,-1.7267785377586211
mp-21451,Ba2SmCu3O7,-2.169248834615385
mp-1019610,Cs2MgSi5O12,-3.1375056024030172
mp-697181,CsLi2(HO)3,-1.6948288144524262
mp-867224,CaNdCd2,-0.34509426937499904
mp-562441,Cs3AlO3,-2.156945058423644
mp-696805,H2S,-0.17075468302083302
mp-610645,Ce(NiAs)2,-0.803890307999999
mp-560077,AsSXe2(OF3)3,-1.641838469999999
mp-561234,BaNaZr2F11,-3.962168267591953
mp-8290,BaSnF6,-3.396749804374999
mp-559378,Ba5Ta2Cl2O9,-3.310566914703704
mp-11631,Dy2Al6Si4Au,-0.386588383333332
mp-569509,Er2Co7,-0.16233121111111
mp-20115,Eu(SiPd)2,-0.843193432999999
mp-17567,Ce2(ZnGe2)3,-0.39122477090909
mp-687212,Cr(PO3)4,-2.430125218151261
mp-30907,Dy3Co11B4,-0.353100248981481
mp-626497,Al(HO)3,-2.023045039107142
mp-1019562,Ca2SiO4,-3.336539129999999
mp-707175,BeH6(NF2)2,-1.5857421403846161
mp-568536,BaI2,-2.047464630555553
mp-22864,Bi2Pt,-0.276960482499996
mp-542313,Ce2O3,-3.768251280249999
mp-743986,CsVH12(C2O7)2,-1.518413173895474
mp-580113,Dy(Zn10Ru)2,-0.19572832572463802
mp-29479,C2(OF2)3,-1.4976218777272732
mp-3805,Al(FeB)2,-0.40118319366666305
mp-654,Ce2Fe17,0.015782001052632
mp-778446,Cr2(PS4)3,-0.5536506662605021
mp-31088,Dy2Pd2Pb,-0.8376781776666591
mp-705713,Bi14WO24,-1.706017954871795
mp-622106,Ba5Pb3,-0.537898847500001
mp-30597,Cu10Sn3,0.03160750653846
mp-557414,BaSi6N8O,-1.5562191359375
mp-6748,Cs2Ti(Si2O5)3,-3.19604436552682
mp-676933,CeAl8O16,-2.4362751168
mp-8017,AlCuTe2,-0.42519420625000104
mp-767515,Gd3AsO7,-3.247919312954545
mp-1019608,Cs3BO3,-2.13071396259031
mp-978253,Ce3(SiRh)2,-0.8346747353571401
mp-772413,Al8SiO14,-3.352404316956522
mp-850223,Fe3OF5,-2.385928431111111
mp-703276,Ca5Al11TlSi13O48,-3.191451245811965
mp-510490,GdScS3,-2.262785510687499
mp-24528,CrH8C4(S2N3)2,-0.328820360869564
mp-562420,Cs3ClO,-1.608732062293103
mp-30927,CsAs4F13,-2.5679592741475092
mp-10044,BAs,-0.041637114791665
mp-19507,BaMn2V2O8,-2.54981148872016
mp-1001571,CaFeO3,-2.176371779
mp-23364,CsLiCl2,-2.1073052591666652
mp-651997,Fe3(GeO4)2,-1.866747364230768
mp-538,CaAg,-0.306086769999998
mp-33857,CrSbO4,-2.119747337916659
mp-22262,CoMoP,-0.5529794193253961
mp-38108,Ba3Pt2O7,-2.029308782291666
mp-22067,Ba2CuGe2O7,-2.384455024999999
mp-989514,Cs2NaSbCl6,-1.913533248068965
mp-527,BaCd,-0.309211824999999
mp-715276,Fe2O3,-1.573145078
mp-6030,Be3Al2(SiO3)6,-3.267593778275862
mp-20786,Dy3In,-0.35102697374999503
mp-4747,Ca2SnO4,-2.88604820642857
mp-559985,CaP4O11,-2.786016361473214
mp-669458,Cs3Bi2I9,-1.211825776711825
mp-19379,CoSO4,-1.7370555291666672
mp-19870,GaFe3,-0.13531762187499902
mp-36194,Ba2TiO4,-3.239249709047619
mp-31093,Dy2CoSi2,-0.7248347526666631
mp-555064,Cd(CO2)2,-1.560798714285713
mp-30579,ErCu5,-0.19254898055555703
mp-30428,BaCu,-0.07352185500000001
mp-754989,Er(BiO2)3,-2.203960773
mp-676599,Cu8NO11,-0.8606078325000001
mp-3288,CsNO2,-1.267775601163792
mp-1018704,GdAlZn,-0.472035931666664
mp-626729,Ga(HO)3,-1.620485207321427
mp-569751,AlPH8(CCl2)2,-0.789295251462053
mp-996993,CuBrO2,-0.5552511387499991
mp-27717,As2S2F3,-1.513620965892858
mp-672191,CeInAg2,-0.26713019249999803
mp-684949,Ca2F,-1.982806110666667
mp-555223,Cs2MnF5,-2.9765578840301723
mp-541789,CsGd(CO3)2,-2.535793588965517
mp-989649,CaMoN3,-0.76549741
mp-706809,Ca2Al11Si13Ag7O48,-2.862925160144032
mp-21198,DyAgSn,-0.586136342777778
mp-721047,CaH8(ClO2)2,-1.5668383610000012
mp-555561,BaU(SiO4)2,-3.452390772916666
mp-24242,CuHOF,-1.417759754062499
mp-510062,CsSmCdSe3,-1.588359889447737
mp-769395,Ho3ReO7,-3.35310799431818
mp-756202,Ba2SrI6,-2.002104132777777
mp-556548,Bi(BO2)3,-2.577010161749998
mp-774425,FeSb3(PO4)6,-2.345672001995797
mp-743698,Ca5Dy3Ti5Mn3O24,-3.349115810886495
mp-639675,EuCu,-0.064432517500002
mp-27272,Ca3PI3,-1.683612634591838
mp-7143,BaPuO3,-3.319721610749997
mp-779837,Hf2N2O,-2.53249979675
mp-1019533,Ba9Y2(SiO4)6,-3.444188032439024
mp-31113,Dy3GaO6,-3.591464098749998
mp-510687,DyAgPb,-0.395864592777774
mp-10250,BaLiF3,-3.741441043666666
mp-3398,Ho2Ni2Pb,-0.518955829999991
mp-9418,Eu(CuO2)2,-1.806413884285714
mp-571015,CuP4Se4I,-0.37080123479464305
mp-985805,AlAg2,-0.056765646666666
mp-6075,Ba2Li(BO2)5,-3.032362909675926
mp-7210,Cd2B2O5,-2.233278833703705
mp-1734,CaZn5,-0.227941309999998
mp-573514,CsSb,-0.595107882500002
mp-29621,Ba5Bi3,-0.8955071224999981
mp-864638,Ba2InBiS5,-1.520311703796295
mp-505186,Cs4Pr6C2I13,-1.508125961944828
mp-28449,CsTbF5,-3.351707979285714
mp-604694,FeP3(HO2)6,-1.965908519837662
mp-19115,CaFeO3,-2.2285190305
mp-27359,CsScCl3,-2.2092879565
mp-867344,Er2NiOs,-0.35606861499999704
mp-568827,Be12W,-0.10411236923076801
mp-8885,BaCdS2,-1.583339704374998
mp-12642,Ba2TmNbO6,-3.4924325310000013
mp-631257,AsSeBr,0.226682451718749
mp-567643,Ba12Na15Li8N6,-0.267294234569666
mp-766310,BaCa2I6,-1.892097049999999
mp-22235,Cs2MnSnTe4,-0.8129580954885051
mp-6204,Cs2NaScF6,-3.560766908568966
mp-6943,Ca4GdB3O10,-3.377505096527777
mp-11659,BaTi(BO3)2,-3.223730964166665
mp-29245,Cd2P3Br,-0.37954305482142603
mp-20753,CeCoC2,-0.293339018749999
mp-20079,CaPbO3,-2.173213993499998
mp-755621,BaNb3NO7,-2.8304187179166673
mp-10468,CeBPt2,-0.9708540972656051
mp-567687,CrI2,-0.548919089999999
mp-19365,Ba3V2O8,-3.018909883076909
mp-30903,Ba3CrS5,-1.7774787713888882
mp-1013550,Ca3SbP,-1.02137064092857
mp-773060,Ba6Ta9Ti7O42,-3.481358380458333
mp-680698,CeSI,-2.020004978749998
mp-9721,Ca3GeO,-1.704652069999999
mp-740711,Cs3B6H12Se4Br,-0.6024036232054031
mp-1219,BaGa2,-0.46331017166666505
mp-568965,CaSiN2,-1.4052441181250002
mp-560151,AlPO4,-3.116160690218252
mp-562072,Cs3SbO3,-1.767709815566502
mp-568423,AlPI8,-0.6438012067142851
mp-984704,CaAgHg2,-0.346949062500002
mp-1019568,CaAl2SiO6,-3.411549716
mp-416,Cr3Os,0.22418504125000202
mp-672275,Ce3(Ge3Pd10)2,-0.6443028810344811
mp-554918,BaY6Si3B6(O12F)2,-3.506243231547618
mp-14568,BaMgF4,-3.986340862499998
mp-30335,Al23V4,-0.182922749629629
mp-849271,AgIO3,-0.685598791833332
mp-8323,Dy2S2O,-2.9619900201666662
mp-542339,CsIn3,-0.280249818333331
mp-38170,Cd(InSe2)2,-0.629884528958332
mp-27259,CsCrI3,-1.032162969931034
mp-15653,CeSi2Ni,-0.795617816249999
mp-541149,Cu4Bi7S12,-0.33258614545289905
mp-3531,Ca2P2O7,-3.209700269594154
mp-645291,As3Pb5ClO12,-1.7500677984523811
mp-1013726,Cd4SF6,-2.125365378437501
mp-1757,DyFe2,-0.07494045555555201
mp-38442,CsNd5Se8,-2.063154734196424
mp-707285,CuH16(IO8)2,-1.061794338285713
mp-4867,CaAl4O7,-3.463972205833334
mp-10410,Ba4Sm2Cd3S10,-1.88162114868421
mp-10878,Ca(MnAl2)4,-0.26837879551724003
mp-16783,Cd2Re2O7,-1.7495187509090901
mp-758221,CaH12S2(NO5)2,-1.406259766296297
mp-2551,DyCo5,-0.089085241944444
mp-571350,Ba(AsPd)2,-0.778867536000001
mp-775989,CrFe3Sb2(PO4)6,-2.353848586607143
mp-28007,BaHgS2,-1.404814385624999
mp-583221,Ba7B4Se13,-1.5417462075889752
mp-753815,CaY2O4,-3.729354905714285
mp-778019,Ag2H16O9,-1.095874616975308
mp-20449,CeInIr,-0.681186746666666
mp-755598,Ag2TeO4,-0.8765712135714281
mp-647164,Cu12Sb4S13,-0.29932473332974
mp-30175,Ca(AlZn)2,-0.28946907599999905
mp-2184,As2O3,-1.623773379000001
mp-22422,Ce3Te4,-1.644045810238096
mp-1019548,BaGe(S2O7)3,-1.9232037949999992
mp-530905,Ba23U8O48,-3.281917527721518
mp-554056,Ca2B5BrO9,-3.007398653578431
mp-541721,Ba3ErRu2O9,-2.64537928
mp-643913,CoH6(NCl)2,-0.638428677954545
mp-24595,Ca2B5H2ClO10,-2.772819533916666
mp-694915,CaLaMnSnO6,-2.686839492793105
mp-27198,Cd(NO3)2,-0.992588532916667
mp-550685,Ba2CaTeO6,-2.786920297666666
mp-998415,CsSeBr3,-1.119503245399785
mp-505632,CsFeS2,-1.024252454913791
mp-504966,Ba2Y2CuPtO8,-2.653220258035713
mp-13740,AgAsS2,-0.157485410156247
mp-9085,CsTbS2,-2.121199003906248
mp-777738,Al(HO)3,-2.02224892625
mp-563032,Ba21Si2O5,-1.007253884821428
mp-8780,Cr2N,-0.254791289583333
mp-560861,Cs2KMnF6,-2.983461569449137
mp-22977,CsVCl3,-1.913989785499998
mp-697313,Al24Tl10Cd7(SiO4)24,-2.956410770766046
mp-541720,Ba3DyRu2O9,-2.632982266444444
mp-18941,Co2SiO4,-2.083099309285714
mp-559238,CsLi2BS3,-1.291387159355499
mp-755043,Al2Si2O7,-3.325532635909091
mp-25940,BiP2O7,-2.2960106266785703
mp-22506,Cs6InAs3,-0.347898671709772
mp-20552,Cr2As,-0.04265080583333301
mp-562057,Cs2Ca2Be3F12,-3.705910838384755
mp-29216,Cs2PtCl4,-1.534298599285713
mp-568531,Bi2Pt,-0.28532103958333205
mp-558588,BaPt2S3,-1.229962742916658
mp-1648,Al12Re,-0.15187291480768902
mp-962068,CaMgSn,-0.286866849999999
mp-766286,Bi8Rh8O27,-1.4380462429069771
mp-19197,Ba3CrO5,-2.750318571666667
mp-1019539,BaB2S3O13,-2.315444543201754
mp-695250,BaLa7Mg5Nb3O24,-3.467146676250001
mp-607399,Al2CrCl8,-1.571660076060602
mp-23432,BaClF,-3.6019593516666673
mp-13335,Cd(BO2)2,-2.434287467619046
mp-768355,BaYF5,-4.299209389523809
mp-638374,BaNdFe2O5,-2.523076048055554
mp-773199,Cs6Co2O7,-1.46827028886207
mp-774715,Ba4LiNb3O12,-3.205398406166667
mp-4782,CaSnF6,-3.402839576875
mp-542533,CsNaB4H12O13,-1.890214207829069
mp-6191,CeB2Rh2C,-0.614215378888888
mp-998890,Cu,0.033066179999998
mp-631577,BiAs2Os,0.7428304074999941
mp-554094,CaMg2(SO4)3,-2.495390897916666
mp-864618,BaHg2Pb,-0.430415881250005
mp-30314,Cs2PdCl4,-1.571850537857145
mp-756052,Ca3Zr2O7,-3.5628100291666662
mp-21644,BaNb8O14,-2.859939266956522
mp-867790,Ba5Ru2O11,-2.256200781111109
mp-552185,AgNO3,-0.6806635453333341
mp-18735,Ba2Co(BO2)6,-2.865107833333334
mp-10736,Ba3N,-0.40036508875000204
mp-561249,Ba17Er16Zn8Pt4O57,-3.003902968480391
mp-642535,Cs4Sb14S23,-0.5275845406326211
mp-755419,Bi2TeO2,-1.265788209333334
mp-997617,BOs,-0.272355456249999
mp-27192,CsBe2F5,-3.470375476831902
mp-568923,Ba2BN2Cl,-1.635481336249999
mp-8670,Ca3CrN3,-1.095505850178572
mp-30276,Ce10Ga5Cl4,-1.024622730902251
mp-549737,Ba2Ca(BO3)2,-3.224687858030303
mp-540772,Er2Ni12P7,-0.7714937901190441
mp-649774,CuSbPbS3,-0.587382019166665
mp-685043,BBr,-0.6094234404166651
mp-18722,Cs2LiMnO4,-1.88183337694684
mp-21071,Eu2SO2,-2.824861879499994
mp-14561,Ba(SiIr)2,-0.825338688500002
mp-1019573,CaAl2SiO6,-3.428106404
mp-760230,Bi5O4F7,-2.339283810625001
mp-15186,Er(CuO2)2,-2.092032177857141
mp-862669,BeFe2Si,-0.379209641249999
mp-12671,Er2SO2,-3.608096235499999
mp-558725,Ba5Ru2Br2O9,-2.457761265555556
mp-14280,Ga2Sn2S5,-0.6698857326736101
mp-694541,FePO4,-2.297583960357143
mp-559066,Ba3Y(BO2)9,-3.128973427822581
mp-6856,Be3Zn4Si3SO12,-2.6890353066304353
mp-21244,Cr3RhN,-0.31229571708333004
mp-10771,Dy4(SiS4)3,-1.605575129407893
mp-27719,Al2CuO4,-2.653946341428571
mp-19732,Cs2CuPb(NO2)6,-0.9937911063322881
mp-867917,CuGeRh2,-0.39096948999999903
mp-621938,Cs3Cr2I9,-1.169315127783251
mp-18909,BaNi2(PO4)2,-2.537440351483517
mp-686717,Fe2NiSe4,-0.512654828482142
mp-569818,Er3Si3Ni,-0.7995605557142851
mp-574430,BaUI6,-1.490003352499997
mp-570615,BaThBr6,-2.2633236162499992
mp-32537,Ag2W2O7,-1.646673068484848
mp-22894,AgI,-0.46514602333333405
mp-8056,Ca(BO2)2,-3.128601376547618
mp-17599,CaCu3(GeO3)4,-1.826874171
mp-21445,Ba3In2O5F2,-2.8372749840277773
mp-19397,Ba2Na(NiO2)3,-1.6932216226149421
mp-1008225,CrFe2Sb,0.14062806500000002
mp-23547,Ba7(ClF6)2,-3.9843349766666663
mp-20809,Cr4InCuSe8,-0.7855761346726151
mp-997046,AuClO2,-0.157334674999999
mp-18965,BaCoO3,-2.047858012
mp-20419,Ca4In2N,-0.68832968690476
mp-15576,Dy3Ga5O12,-2.973477162499999
mp-35915,BaBi2O5,-1.831761248124999
mp-541712,Ce3Si6N11,-1.530149469562499
mp-559588,CdSbS2Br,-0.805227481999999
mp-556703,Ba3Mg(SiO4)2,-3.321365118452381
mp-30304,Bi3SbO7,-1.7795944595454571
mp-30613,ErSn2,-0.559702638333332
mp-6854,Cs2LiMn(CN)6,-0.25721712378592
mp-4900,BaCeO3,-3.587315589
mp-20391,B2Mo2Ir,-0.431670740333333