material_id,formula,formation_energy
mp-17400,Ba2TaN3,-1.252087564555554
mp-667363,AlPO4,-3.106236630912699
mp-10931,HoSF,-3.333161717604165
mp-556647,Ba5Re3ClO15,-2.7911485840625003
mp-35787,Ca(DyS2)2,-2.370218469821424
mp-30440,Be22Mo,-0.052264163478261
mp-1016873,CaHfO3,-3.660851149000001
mp-982662,Eu2MgSi2O7,-3.341890984583333
mp-23713,CaH2,-0.6668815449999991
mp-2159,DyTe,-1.495048897499998
mp-510369,Ce5Pb3O,-1.030977366666663
mp-570817,Cu2P8Se3I2,-0.27896917077827305
mp-7302,CrP4,-0.264165119380952
mp-27172,Cs3In2Cl9,-1.775917081249998
mp-977389,CeCuO3,-2.334185237
mp-28040,Hf(BH4)4,-0.20640690904761902
mp-29044,Cd4Sb2I3,-0.49290522749999904
mp-1019549,BaMg2Si2O7,-3.294698232291667
mp-772228,CdP4O11,-2.4558672525669643
mp-8570,Ba3Zr2S7,-2.149402541875
mp-699464,Ca3Be2Si3(HO6)2,-3.091552772840909
mp-772099,Cd(CuO2)2,-1.080805735714285
mp-540204,Co2P3O10,-2.251799367595238
mp-9934,BaMgSi,-0.35283726000000004
mp-556247,Dy3S3N,-2.302916352098212
mp-20137,Dy(GePt)2,-0.8725932650000001
mp-23465,Cs2TeCl6,-1.447215981666665
mp-866830,Ca3SnS5,-1.582940777499998
mp-772080,BaLaI5,-1.847889288749999
mp-6653,Ba2ErNbO6,-3.479930908
mp-568182,Ce(CoAs)2,-0.7197202689999941
mp-32791,Ag2S,-0.024350414270832003
mp-12063,Ce(AgGe)2,-0.376001864666665
mp-19312,BaTb2NiO5,-3.117015718703704
mp-755070,CeSmO2,-3.165044858749999
mp-649334,FeSCl7,-0.9330323047222221
mp-2000,CuSe2,-0.13386065937500002
mp-754636,ErBiO3,-2.797893476000001
mp-21068,CaIn2,-0.589382456666667
mp-6779,Ba2Pr(CuO2)4,-2.024219551444444
mp-758269,Ba8In6O17,-2.4065026104838703
mp-19521,Al2(MoO4)3,-2.403986258676472
mp-16532,BaCe2FeS5,-1.88586104472222
mp-849081,Cr2S3,-0.693736492499998
mp-561235,AsCSF11,-2.106178087857142
mp-775842,Bi24B2O39,-1.686977302666668
mp-567747,Co7Mo6,0.011532919358971001
mp-3142,Ca(NO3)2,-1.5225083833333342
mp-866311,Bi3BrO4,-1.630138166874999
mp-27840,Cr3Se4,-0.766725084196428
mp-635020,Cs6Bi4O9,-1.636907791733214
mp-11435,Er(TiGa2)2,-0.53171732095238
mp-774100,Dy29Y3O48,-4.000052685354165
mp-697078,Cs2SiP4(HO7)2,-2.568855413060076
mp-977351,Ac2S3,-2.440363970687502
mp-11440,HfGa2,-0.5036237225000041
mp-4124,CaCN2,-1.040555056874998
mp-16585,HgB4O7,-2.484188484201388
mp-23152,Bi,0.0
mp-779894,Fe6O7F5,-1.89720791111111
mp-558946,BaSbSe2F,-1.990805762437499
mp-768974,BaY3Cl11,-2.689784992333334
mp-1004528,CsB3PbF12,-3.139649260420892
mp-557364,CdB2F8,-2.890806871818182
mp-2636,GdMg,-0.07880844249999701
mp-774233,Co(IO3)2,-0.923875217777777
mp-12039,Gd2Mo2C3,-0.38233868857143005
mp-764940,FeOF,-2.016565831111112
mp-672273,AlBiCl6,-1.714143323750001
mp-1006324,Ce(YS2)3,-2.3984050541875
mp-625894,Ba(H2O3)2,-1.291239958181818
mp-23675,H4BrN,-0.693757084166665
mp-30023,Ba(AlCl4)2,-2.295567081363635
mp-573114,Gd3CuGeS7,-1.743606352708332
mp-866492,Cs9AlO4,-1.354965065492612
mp-2260,FePt,-0.231995889999999
mp-22740,CeCuSi,-0.640837746666666
mp-675633,Ag4AuS2,0.06848232526785701
mp-19467,AgMo3P3O16,-2.204619052199791
mp-971657,Au3N,0.692981135000003
mp-387,CeSb,-1.407199144999999
mp-703297,H7S(NO2)2,-1.061020823303571
mp-11421,Gd,0.14971621000000102
mp-571599,Ba(BiPd)2,-0.642472992999996
mp-849802,Ba2YI7,-1.882983252999999
mp-675327,Ag9(PbO3)4,-0.8176260189999981
mp-765585,Ca3Tl4O9,-1.931652354270835
mp-27250,CsTcO4,-2.165791816192528
mp-1013691,Ba3BiP,-0.8450844469285711
mp-626703,CrHO2,-1.9774176815625002
mp-582142,Ce3Bi4Pd3,-0.8558810625000031
mp-983598,Ca2AgBi,-0.728312803333341
mp-560620,BaZr(PO4)2,-3.280782184107142
mp-13272,BaAlGe,-0.47589118833332805
mp-683984,Al(SeCl)4,-0.843153536805556
mp-984769,CaTl2Cd,-0.21536199666666903
mp-2501,BMo2,-0.32216311416666804
mp-778180,CsTi(NbCl3)6,-1.539882631410242
mp-866066,B2S3,-0.630010007166665
mp-10909,AlRe2,-0.32302287499999705
mp-27718,CsHgBr3,-1.306981333431035
mp-11123,CsYHgSe3,-1.455908979031071
mp-755556,Ba6ZrO8,-3.0589600226666662
mp-11285,Ca3(GaNi)4,-0.487152415454545
mp-19416,BaDy2NiO5,-3.12600791648148
mp-3857,Ba3(PO4)2,-3.294371403021977
mp-985303,Ac3Th,0.129702878125002
mp-694897,Cr6PbO18,-1.283365906000001
mp-28729,Ag25(BiO6)3,-0.5467989480797101
mp-505697,Bi6P4PbO20,-2.256616235437789
mp-15617,Cr5B3,-0.26611382593750005
mp-752684,BaTm2O4,-3.694447708571431
mp-510055,Co2B2O5,-2.15124852925926
mp-23214,CaCl2,-2.646155858333333
mp-1317,CoSb3,-0.147884075
mp-27607,Bi4Se3,-0.303336318169645
mp-35687,Be(CN)2,-0.22551641000000003
mp-514,HfZn2,-0.278166579999999
mp-559223,GdH6C4NO9,-1.6254952153571431
mp-504711,CoCuO2,-0.9799229074999991
mp-849286,Ba(GaS2)2,-1.4616634560714301
mp-504727,EuBrO,-2.719750043333333
mp-15919,BeAgPO4,-2.377695446496598
mp-2225,Be2Fe,-0.27759050166666505
mp-4198,Ag3PO4,-1.406864123705355
mp-567527,Eu(Al10V)2,-0.214834057391302
mp-770473,CaLaI5,-1.833648429285714
mp-541656,AuCl2,-0.31720318750000104
mp-866274,CeCdHg2,-0.46699460624999706
mp-5168,AlSiP3,-0.373110040035714
mp-22631,Co2N,0.17786528208333302
mp-29833,Bi2(SeO3)3,-1.4542795178236672
mp-8790,Ba2CuO3,-2.286241100833322
mp-18994,CsMnO4,-1.4896368375143632
mp-7506,Cr5Si3,-0.12199586687500201
mp-19487,Ba2Mn(PO4)2,-3.064983261324365
mp-677072,Ca(InTe2)2,-0.8042356138254181
mp-11284,CaGa2,-0.595009248333333
mp-570140,AuBr,-0.38517572000000305
mp-10201,Ge2Mo,-0.10556623333333401
mp-23256,BCl,-0.595629319045139
mp-1007855,FeNi3,-0.072726832499999
mp-756313,CaPbI4,-1.308810154583332
mp-13431,Dy2AlCo2,-0.37967793666666205
mp-704626,FeAg(SeO3)2,-1.247794580885416
mp-689963,CrPO4,-2.423106084523809
mp-19114,Ca2NiWO6,-2.6081808730000002
mp-28027,AsF3,-2.229369302499999
mp-28924,Ga8BIr4,-0.44155100532051306
mp-558149,BF3,-2.92626727125
mp-13811,Ba2MgUO6,-3.457244664499998
mp-755949,Ca4I6O,-2.066523653181817
mp-865,CaB6,-0.47496618928571505
mp-19447,Cs2NaVO4,-2.289819043836207
mp-19225,FeAgO2,-1.219109076041666
mp-685168,BeF2,-3.436258169166666
mp-562541,Cs2Na3TlO4,-1.422391085678161
mp-24052,CaMgNiH4,-0.5000086760714281
mp-29466,CeSi3N5,-1.4897114845833341
mp-2088,CeAl2,-0.502238053333333
mp-754224,BaSr2I6,-1.971224267222223
mp-11275,Be2Re,-0.37955290416666604
mp-554883,Al(HO)3,-2.030297232678571
mp-5486,Ca(CuSi)2,-0.42470240199999904
mp-1019530,Ba2P2O7,-3.223110419025973
mp-567776,Cs2AgAuCl6,-1.4474644520977011
mp-27819,Ag3O,-0.216563653749997
mp-8313,Cs2Li2GeO4,-2.102343527330779
mp-30180,Al4Mo,-0.288510692166668
mp-7980,Ba3SrTa2O9,-3.389574154644445
mp-22793,AlFe3C,-0.159749470999999
mp-10087,CeScSi,-0.5844639677777741
mp-557158,CrMoF6,-2.90843886625
mp-557176,Ba5B4(O5F)2,-3.281190380079366
mp-541204,As2S3(NF6)2,-1.773116919078947
mp-14214,Ba4SiP4,-0.969867989007936
mp-772170,CaLaI5,-1.782752856785714
mp-3301,Dy(SiPd)2,-0.914674314333331
mp-20856,Eu(FeP3)4,-0.559540355336134
mp-560889,Ba6Na2Si4O15,-3.216130917879948
mp-19415,Er(FeO2)2,-2.381147112857142
mp-1019559,Ca2B2O5,-3.2427198609259262
mp-8280,Ba(MgAs)2,-0.9285784290000021
mp-20108,CaIn4Pd,-0.525335052499999
mp-15809,Cr2B,-0.206672950833334
mp-768952,Bi2B2O7,-1.701133474848484
mp-756084,BaNa4O3,-1.719177010064655
mp-1890,BMo,-0.5239632375000021
mp-22803,Cr2CuS4,-0.9210871042857111
mp-505535,B8Ru11,-0.155785114385965
mp-758523,AgHg,0.08343215041666201
mp-864635,Ag2Cl3,-0.499390825499999
mp-842,CaPt2,-1.026136726666664
mp-684617,Bi2O3,-1.524240672333335
mp-778377,Ba5Y3F19,-4.210474952037037
mp-12309,Cs2NaAl3F12,-3.653021051149425
mp-866010,CaCdAu2,-0.5571728124999971
mp-16451,BaPr2CoS5,-1.9291273217592582
mp-27341,BH4N,-0.42805591062500004
mp-758332,CaGd4O7,-3.754291838541666
mp-510535,CsB5O8,-2.82901977092775
mp-6764,BaSi2(NO)2,-2.341155775714285
mp-707138,Ag2PHO4,-1.5734414415699391
mp-8291,BaTiF6,-3.974811880416666
mp-18764,Ba2SrWO6,-2.968149434
mp-643253,Ba2H6Pt,-0.658170076388889
mp-5496,Al5C3N,-0.36906000999999905
mp-10615,BaLiP,-0.8761173826587291
mp-5323,CeAlO3,-3.603223498999999
mp-4120,CaCuAs,-0.9415454925000001
mp-977559,Dy2MgGe2,-0.7650942636666641
mp-754459,BCl(OF2)2,-1.938781272395833
mp-779533,Ba3(BrO)2,-2.739988020714285
mp-605663,AlPd5,-0.46204495833333203
mp-772523,Ba8LiTa7O24,-3.299643312116667
mp-779906,Ca3WO6,-3.0564188535
mp-674298,Al22CdO34,-3.326903878070176
mp-21412,Ce3Tl,-0.269940165000001
mp-754240,CaSm2O4,-3.627494344285714
mp-559460,Cs2Ti(Si2O5)3,-3.191050216985153
mp-561321,AsSeS2N2ClF6,-1.361126316622595
mp-3000,Cr3GaN,-0.303798610416666
mp-697853,Ba3WO6,-2.7614866235
mp-1013730,Cd5(S2Cl)2,-0.844677733295451
mp-19151,BaYCo4O7,-2.038653213076922
mp-29505,Cs3BiO3,-1.608117970923647
mp-10485,BaLiSb,-1.008913952777778
mp-13259,CsHoCoSe3,-1.4024155544477361
mp-999197,AgN,1.4292424741666672
mp-626267,Ca(H8O5)2,-1.345968170185185
mp-559128,CaTeCO5,-2.240124346770834
mp-554379,AsXeF11,-1.5436233136538462
mp-23195,Bi2O3,-1.622255527000005
mp-707304,Be4Si2H2O9,-2.847125684558824
mp-756136,CaPbI4,-1.3234838274999992
mp-4484,Ba(PRu)2,-0.9410360498571411
mp-776199,AgClO3,-0.396924448333332
mp-2647,Al2Au,-0.49509397333333505
mp-561827,Cs3TlF6,-2.5565927189999993
mp-756998,CdH2(SO4)2,-1.6657461444230761
mp-28895,Ba(P2Pd)2,-0.6639766412244891
mp-38511,Ag2S,-0.08414585760416701
mp-555644,Al2Tl3(PO4)3,-2.620962842821428
mp-605867,CeIn7Pt2,-0.363833475666664
mp-18788,CrCoO4,-1.5653893133333332
mp-849083,Cr2S3,-0.965671559499999
mp-766957,FeBP2H5NO9,-1.950018608931705
mp-644264,Ca4Mg4Fe3H22,-0.525035802954544
mp-560641,Ba12Cl5F19,-3.913170230694445
mp-530464,Ag5(Sn3S8)2,-0.32798291154514103
mp-17102,Ba4Ir3O10,-2.146047897647069
mp-754673,Er6Te2Ru,-0.731995879259255
mp-542328,Ce5Ga3,-0.47710436312500004
mp-3611,Dy2Hf2O7,-4.012424123030301
mp-672292,Gd3Se4,-2.060798985178568
mp-773181,Cr3WO8,-2.143709030833333
mp-675192,Ce3Dy2O9,-3.888869184166666
mp-1043,HfV2,0.063836605000001
mp-721592,Ca6Al7O16,-3.40961760413793
mp-557667,Ge3Pb5O11,-1.840155298596491
mp-675153,Ca16HN8,-0.8757999145499951
mp-1724,Er2Fe17,-0.018664628421052
mp-19256,Er2Mn2O7,-2.915723314623823
mp-1730,BaGe,-0.5962258124999991
mp-556583,CsSb2F7,-2.8067705894655273
mp-17892,Ca2VN3,-1.413516451874999
mp-780103,Fe4O5F3,-1.8684547516666652
mp-30574,CsGa7,-0.154486704374999
mp-28536,BaSe2O5,-1.9180706830859422
mp-771008,Ba3(BrO)2,-2.742080754999999
mp-21374,Cd(InTe2)2,-0.507855047142856
mp-9571,Ca(ZnAs)2,-0.6555636290000011
mp-771174,Ba2B2O5,-3.135352092592592
mp-541449,CrGeTe3,-0.419505622000001
mp-29616,CsCrCl3,-1.721930033499998
mp-571531,Cs3Mo2I9,-1.035583386711823
mp-560676,CrAgS2,-0.596659049166665
mp-18967,Ba2CoMoO6,-2.463285518
mp-775932,Ba2YI7,-1.823609865249999
mp-777413,CeScO3,-3.8550088069999973
mp-643243,Cs2H6Pt,-0.469140110277777
mp-504659,Hf2P,-1.092158757936513
mp-695936,GeH10(N2F3)2,-1.25626191297619
mp-757324,CeZr6O14,-3.779084201666666
mp-639160,Gd2InGe2,-0.7213343443333341
mp-3680,Er2Fe14B,-0.11759846274509601
mp-19112,FeSO4,-1.8567798704166671
mp-28332,CsTlI4,-0.9913131867480851
mp-626161,Al5HO8,-3.197593442946428
mp-21240,Gd(SiRh)2,-1.107758146
mp-505321,CsNb(CuTe2)2,-0.702966825165229
mp-997000,AgHgO2,-0.508349317291668
mp-23378,EuAgBi,-0.681513990000003
mp-6645,Ba14Na14CaN6,-0.316671435694581
mp-505151,Ca3CuIrO6,-2.299731175
mp-17699,Er2Cu(B2O5)2,-3.028765231568627
mp-775767,AgAsO3,-1.232443394333333
mp-641689,Ce6In5Pd12,-0.7268878451449261
mp-680761,Cd3(PO4)2,-2.2433336802655672
mp-22116,EuGe2,-0.542215925000003
mp-5339,CsNaTe,-1.229981633333333
mp-675701,Ca(HoSe2)2,-2.210126742321429
mp-4255,Ba(CuS)2,-1.120346294499994
mp-631489,Be2CdP,0.729983571339286
mp-973675,Hf9AsW4,-0.256427780535712
mp-574367,CuAsSe,-0.16782721718750102
mp-772942,Cu3(P2O7)2,-1.972791708979591
mp-21278,CeIn2Ir,-0.512159429583332
mp-1018033,AgRhO2,-0.8739557429166651
mp-776055,Fe3Cu2Sb(PO4)6,-2.186573832440476
mp-21455,EuAlO3,-3.324379768500001
mp-505511,CoAsSe,-0.38076552010416703
mp-760410,BePO4,-2.5378365166071433
mp-542912,FeH12Pt(ClO)6,-1.230813236538461
mp-769301,Ca4Ta2O9,-3.441824733811111
mp-631568,AlAgB,0.8454208495333331
mp-768222,BaY2F8,-4.299270735454545
mp-625565,Cd(HO)2,-1.2909213105
mp-505158,CsHoS2,-2.11535593265625
mp-780099,Fe2OF3,-2.285203885
mp-631696,Ca2CoW,1.029828753333333
mp-555736,BaHg2(ClO)2,-1.659566770357145
mp-769003,BaY3Cl11,-2.708353833333334
mp-867815,AcGa3,-0.595929866874999
mp-1019542,BaCaB2O5,-3.206978065092593
mp-780535,BaLu2O4,-3.7148545483333333
mp-7095,CeCoSi2,-0.7469604775
mp-554614,Cu3(AsO4)2,-1.312015413846154
mp-759943,Al2O3,-3.391415691124999
mp-23872,Ca3Al2H6S(OF)8,-2.835444810178571
mp-651786,Ca5MnSi9(Pb3O11)3,-2.7703193511040523
mp-555093,CuB4O7,-2.456103448888888
mp-554172,Ba3Zr2S7,-2.132344507291666
mp-10884,AlFeCo2,-0.35879662500000004
mp-24053,AgH2ClO5,-0.7006959315740741
mp-634446,CsAl(H2N)4,-0.588670965714285
mp-561672,Cs4IrO4,-1.445429877624522
mp-764668,Fe4OF7,-2.392221291666667
mp-569548,CsAuBr3,-1.218823183931034
mp-20369,CeIn3,-0.5227776000000011
mp-6258,CeCr2Si2C,-0.466738325833333
mp-15888,Ba2YIrO6,-2.761594729999999
mp-32780,AuCl,-0.264202023750002
mp-865182,Gd2SCl4,-2.473256206830358
mp-625928,HI3O8,-0.8001992034375001
mp-989571,Cs2NaInCl6,-2.013801218735632
mp-637196,K2Pt(CN)4,-0.258621839128786
mp-28373,BaP3Pt2,-0.8983299264880871
mp-6694,Cs2Zr(SiO3)3,-3.222271184287356
mp-532384,Dy2Ti2O7,-3.743230137386362
mp-626024,H2SeO4,-1.101808946763392
mp-780128,Fe2OF3,-2.280176073333334
mp-19324,Ca2MgWO6,-2.9928794245
mp-756018,BaMgO2,-2.893251054583333
mp-542316,Co2Mo3N,-0.20146839625000001
mp-684708,Er2S3,-2.32521540827083
mp-568819,Bi20(PtBr12)3,-0.9782524427118651
mp-571313,Hf(SeCl6)2,-0.922353281208334
mp-16035,Gd2TeO2,-3.287839963333331
mp-19841,ErGeRu,-0.732831362499999
mp-698292,K2ZrCdH16(CO3)8,-1.604098324125001
mp-975452,Hg3Rh,0.194708390000002
mp-631516,Be2HgTe,0.703955182708332
mp-13263,Ce2Mo2C3,-0.369601912857141
mp-21705,K2In3AgSe6,-0.9816662723107631
mp-675286,Ca3UN4,-1.529886329999996
mp-771922,Ba3YI9,-1.8839845359615381
mp-15238,Ho4C5,-0.328535149999996
mp-542664,Ce2SiSeO4,-3.308823604355468
mp-3020,BaNbO3,-3.178754561000029
mp-862621,GaPt3,-0.44416244312500003
mp-17465,Gd2Cu(SeO3)4,-2.10846652444079
mp-625174,H5IO6,-0.9973210992708321
mp-643451,BaMg2H8Ru,-0.524300972083333
mp-561147,Ba2BiRuO6,-2.191964763499999
mp-23334,Bi2TeO5,-1.644739106145836
mp-2991,Cs2UO4,-3.018815749901482
mp-644236,Cs2MgH4,-0.30335269811576404
mp-778071,BaYF5,-4.262626711428571
mp-12417,Ba2CaReO6,-2.915715638250001
mp-11593,CeB2Ir3,-0.671960808055558
mp-6123,Ba2Pd(OF)2,-2.822891184285714
mp-20735,Ce3Sn,-0.410198418749999
mp-41473,CsTiNiOF5,-3.110899164498724
mp-13464,Ca(FeSb3)4,-0.288369337647057
mp-545544,Ba2TaBiO6,-2.950626889733333
mp-12905,Ba3CrN3,-0.9083864385714261
mp-20529,Ba3NaIr2O9,-2.146700871425288
mp-752673,Dy2CuO4,-3.106562103333331
mp-754954,Ag2Se,-0.128311240520834
mp-757074,BaCa2I6,-1.9173063522222211
mp-632715,Cs3CeF6,-3.461380038896552
mp-571542,CeAlCo,-0.512263699999999
mp-560558,CsCdAuS2,-0.8536747171249881
mp-4842,Al2ZnS4,-1.190503468035713
mp-650513,Ca3(InAs2)2,-1.031447416111111
mp-27845,CaSe2O5,-1.9145079593359422
mp-779622,Be2P2O7,-2.754877360238095
mp-5928,Al2CdS4,-1.147233041607143
mp-6388,Ca4SmB3O10,-3.375311077916666
mp-8200,AgP2,-0.038252180317459
mp-770128,Cs6Ti2O7,-2.488192721973179
mp-505042,Cu(BiO2)2,-1.451445688214286
mp-558846,Cs2As4Pd3O14,-1.542560799861318
mp-3408,CeAlO3,-3.619700071999999
mp-554401,BaCu2Te2(ClO3)2,-1.655935796410256
mp-568080,CeP2,-1.194350468650791
mp-9198,Fe(SiP)4,-0.281895123174603
mp-867122,Ac2CuSi,-0.27116471749999904
mp-1009593,CrCoTe,-0.050198278888888004
mp-556942,Ca2SiO4,-3.461198143749999
mp-13277,BaLiP,-0.9094072093253971
mp-9081,CsNdS2,-2.08759569578125
mp-698170,Ca2B5H2ClO10,-2.767211498916666
mp-556061,CsSb2F11,-2.788554103189654
mp-557935,Dy2Cu(BO2)8,-2.945495197469135
mp-9462,CsTeSe3,-0.7501604921706181
mp-29475,BH2N,-0.694240928229167
mp-542065,CdAgSb,-0.031579532777778
mp-984745,CsSnO3,-1.528053325931034
mp-2249,HoZn,-0.34293370249999505
mp-680111,CdI2,-0.8269098231666671
mp-1018117,CeRh,-0.804688919999996
mp-22248,Eu(BO2)3,-2.958343775749999
mp-7971,Ba4Li(SbO4)3,-2.557289012666666
mp-37920,AgAuS2,0.042853256093746
mp-28005,As2(SO4)3,-1.668678688529412
mp-636498,In3Ir,-0.275391854375001
mp-2517,Ca2Si,-0.5331682466666681
mp-558960,Dy2Tc2O7,-2.823644789848484
mp-647247,Er2Ga10Os3,-0.416653644999995
mp-982048,Ge2O3,-1.486896970999999
mp-5887,EuNiGe,-0.5816515066666661
mp-781615,HfCrO4,-2.973007412083333
mp-675525,InGaSe2,-0.6374418420312501
mp-5970,Ba(CuS)2,-1.126581507999994
mp-694975,Ba3HoUFeO9,-3.020517503333332
mp-30478,Ca2Pb,-0.5509389933333301
mp-1713,CsCd13,-0.07843240321428101
mp-1008280,CrCo3,0.15522828499999902
mp-631378,Cs7NbIn3As5,-0.431898444692886
mp-768973,Ba2YCl7,-2.7949167635
mp-559963,AlS2NCl4,-0.8490515358984381
mp-14653,AgSb2F12,-2.3875121401111112
mp-756914,Er2B4O9,-3.288378234111112
mp-672251,CsGaBr4,-1.611976532442529
mp-573658,Cs3BAs2,-0.337849621355363
mp-505025,BaPuO3,-3.34406189474999
mp-17120,Cs6K3AlSb4,-0.46527983390578803
mp-13576,EuAsO4,-2.453927178750007
mp-674953,Cu2GeTe3,-0.119006410833333
mp-774719,Ba4Nb3O12,-3.132123945263158
mp-4393,Cs4U5O17,-3.3384134026392562
mp-913,CdP2,-0.181319395734126
mp-22919,AgI,-0.37274297833333203
mp-985806,Al2Cu,-0.21265698333333302
mp-699501,Ba(HO)2,-2.0448318814
mp-556653,Cd2BiAsO6,-1.64887122325
mp-752729,CaTb2O4,-3.7110515533333333
mp-5966,Cd2SnO4,-1.706836854999997
mp-766324,BaCaI4,-1.908275637916666
mp-1590,Be12Cr,-0.050614865384615
mp-772955,Ba2LaCl7,-2.916086672499999
mp-23731,CuSi(HO2)2,-1.8823740909375002
mp-867770,BaHg3,-0.43417235062500703
mp-21209,Cu3(AsO4)2,-1.307728772692308
mp-673874,Ba9(NdS6)2,-2.29871161021739
mp-865901,BeCo2Si,-0.5671847212500001
mp-643378,CuH4Pb2(ClO2)2,-1.325931599615384
mp-22625,Cr2CuTe4,-0.45779294309523705
mp-24523,CsAlH24(SeO10)2,-1.419937732642516
mp-866873,Ca3Sn2S7,-1.2446304710416651
mp-28908,Ba5(RuO5)2,-2.441765696764707
mp-554518,EuCO3,-2.6219654300000013
mp-5241,DyPS4,-1.211442349454365
mp-28788,Ba9(AuO6)2,-2.463638764021739
mp-569939,AgBi2Se3Cl,-0.49585717090774606
mp-12268,BaCuF4,-2.998206198333333
mp-1167,CF4,-1.904165606
mp-763780,Fe(PO3)3,-2.405877532994505
mp-853,ErNi5,-0.336448439999999
mp-29809,Ca2GeN2,-0.9813410222499991
mp-30623,Dy5Sn3,-0.712904919791663
mp-14294,Ba2YbSbO6,-2.998014517750002
mp-676724,Ca(Al3Te5)2,-0.507849409852948
mp-2499,BaSi,-0.385979767499999
mp-9900,Ag2GeS3,-0.46699392263888906
mp-19458,BaV10O15,-2.52134808423077
mp-14246,Ba(AlS2)2,-1.754765519880949
mp-561647,Cs2TeOF4,-2.611909921997126
mp-8314,Cs2NaAsO4,-2.026449079148707
mp-24465,GaP3(HO5)2,-2.346926715870537
mp-8109,EuB4O7,-2.982551635972221
mp-21695,Ce(Ni2B)6,-0.39097972473684706
mp-755287,Ca3CdO4,-2.831232277499999
mp-540639,FeH8C4(S2N3)2,-0.28470859608695703
mp-695952,Cr3(PO4)4,-2.340181323850932
mp-684732,Co2S3,-0.46939558168750106
mp-8395,CaTiF5,-3.894720695476191
mp-28897,BIrPd,-0.30419117
mp-866280,CaSmRh2,-0.551134911249999
mp-767401,Gd2AsO5,-3.102072022500001
mp-997012,CuPdO2,-0.884183718749999
mp-29127,Bi(TeBr2)2,-0.79017171547619
mp-614013,CsSnI3,-1.181536319931034
mp-642358,Ba4Pr(RuO4)3,-2.462355290083333
mp-863674,ErMgHg2,-0.43402499250000304
mp-20845,Dy2Sn2O7,-3.027287646212119
mp-754401,Al2O3,-3.331427151
mp-690539,CrNiF6,-2.534242858750021
mp-606949,C,0.006065369166667001
mp-30254,Ba3(LiSn2)4,-0.519010026222219
mp-23431,CsCu2I3,-0.8082268882758621
mp-553342,CsBe2BO3F2,-3.165793868202426
mp-22295,Ca(Cu2P)2,-0.500592162278912
mp-644672,Cs3VH8(Cl3O2)2,-1.652601338134797
mp-541722,CsBa2Br5,-2.465913014956898
mp-3384,Er3Al5O12,-3.71221693225
mp-1077,B2Ru,-0.308338266666668
mp-6200,Ba2NdRuO6,-2.76169770475
mp-676580,Ba11(Nb3S14)2,-1.7585988086666662
mp-11009,CaC2(SN)2,-0.6044259793048461
mp-672981,BiP2O7,-2.29618850692857
mp-556896,Ba4AgAuO6,-2.196761526805555
mp-989582,Ca6Pb2SeN,-0.9577871257343731
mp-607931,Cs3NaLi2(BO3)2,-2.323294394667487
mp-746364,CrH12Pd(NO)4,-0.7963734938636361
mp-650,Be5Pd,-0.31534194249999903
mp-30635,Fe3Pd,0.067387285000001
mp-703470,AsH6NO4,-1.154660699583333
mp-19011,Ba2NiTeO6,-2.277184675666666
mp-7574,AlBMo,-0.48689827250000106
mp-643710,Cs3B12H12I,-0.477686384248767
mp-19333,Fe2B2O5,-2.284821307037037
mp-1013642,Ca3AsP,-1.126981886678571
mp-862288,AlFe2W,-0.20830292249999902
mp-20996,DyIn5Rh,-0.395650364999996
mp-505786,CeH14Cl3O7,-1.497116609899999
mp-567646,Ba9Sm6Cl34,-2.80317716877551
mp-562442,Cs2SeO4,-1.804141575950585